<?xml version="1.0" encoding="ISO-8859-1"?>
<modeling>
 <generator>
  <i name="program" type="string">vasp </i>
  <i name="version" type="string">5.3.5  </i>
  <i name="subversion" type="string">31Mar14 (build Mar 18 2017 11:34:20) complex                          parallel </i>
  <i name="platform" type="string">LinuxIFC </i>
  <i name="date" type="string">2017 08 02 </i>
  <i name="time" type="string">14:52:21 </i>
 </generator>
 <incar>
  <i type="string" name="SYSTEM"> 2D MoTe2 in a box</i>
  <i type="string" name="PREC">accurate</i>
  <i type="string" name="ALGO"> Normal</i>
  <i type="logical" name="LSORBIT"> T  </i>
  <i type="int" name="ISPIN">     2</i>
  <i type="int" name="ICHARG">     1</i>
  <i type="int" name="NELMDL">    -5</i>
  <i type="int" name="IBRION">    -1</i>
  <i name="EDIFF">      0.00000001</i>
  <i type="int" name="NSW">     1</i>
  <i type="int" name="ISIF">     2</i>
  <i type="int" name="ISYM">     0</i>
  <i name="ENCUT">    350.00000000</i>
  <i name="POTIM">      0.50000000</i>
  <i type="logical" name="LREAL"> F  </i>
  <i type="int" name="ISMEAR">    -1</i>
  <i name="SIGMA">      0.00862174</i>
  <i type="int" name="NWRITE">     3</i>
  <i type="int" name="LMAXMIX">     4</i>
  <i type="logical" name="LWAVE"> F  </i>
  <i type="logical" name="LCHARG"> F  </i>
 </incar>
 <kpoints>
  <generation param="Monkhorst-Pack">
   <v type="int" name="divisions">      18       18        1 </v>
   <v name="usershift">      0.00000000       0.00000000       0.00000000 </v>
   <v name="genvec1">      0.05555556       0.00000000       0.00000000 </v>
   <v name="genvec2">      0.00000000       0.05555556       0.00000000 </v>
   <v name="genvec3">      0.00000000       0.00000000       1.00000000 </v>
   <v name="shift">      0.50000000       0.50000000       0.00000000 </v>
  </generation>
  <varray name="kpointlist" >
   <v>       0.02777778       0.02777778       0.00000000 </v>
   <v>       0.08333333       0.02777778       0.00000000 </v>
   <v>       0.13888889       0.02777778       0.00000000 </v>
   <v>       0.19444444       0.02777778       0.00000000 </v>
   <v>       0.25000000       0.02777778       0.00000000 </v>
   <v>       0.30555556       0.02777778       0.00000000 </v>
   <v>       0.36111111       0.02777778       0.00000000 </v>
   <v>       0.41666667       0.02777778       0.00000000 </v>
   <v>       0.47222222       0.02777778       0.00000000 </v>
   <v>      -0.47222222       0.02777778       0.00000000 </v>
   <v>      -0.41666667       0.02777778       0.00000000 </v>
   <v>      -0.36111111       0.02777778       0.00000000 </v>
   <v>      -0.30555556       0.02777778       0.00000000 </v>
   <v>      -0.25000000       0.02777778       0.00000000 </v>
   <v>      -0.19444444       0.02777778       0.00000000 </v>
   <v>      -0.13888889       0.02777778       0.00000000 </v>
   <v>      -0.08333333       0.02777778       0.00000000 </v>
   <v>      -0.02777778       0.02777778       0.00000000 </v>
   <v>       0.02777778       0.08333333       0.00000000 </v>
   <v>       0.08333333       0.08333333       0.00000000 </v>
   <v>       0.13888889       0.08333333       0.00000000 </v>
   <v>       0.19444444       0.08333333       0.00000000 </v>
   <v>       0.25000000       0.08333333       0.00000000 </v>
   <v>       0.30555556       0.08333333       0.00000000 </v>
   <v>       0.36111111       0.08333333       0.00000000 </v>
   <v>       0.41666667       0.08333333       0.00000000 </v>
   <v>       0.47222222       0.08333333       0.00000000 </v>
   <v>      -0.47222222       0.08333333       0.00000000 </v>
   <v>      -0.41666667       0.08333333       0.00000000 </v>
   <v>      -0.36111111       0.08333333       0.00000000 </v>
   <v>      -0.30555556       0.08333333       0.00000000 </v>
   <v>      -0.25000000       0.08333333       0.00000000 </v>
   <v>      -0.19444444       0.08333333       0.00000000 </v>
   <v>      -0.13888889       0.08333333       0.00000000 </v>
   <v>      -0.08333333       0.08333333       0.00000000 </v>
   <v>      -0.02777778       0.08333333       0.00000000 </v>
   <v>       0.02777778       0.13888889       0.00000000 </v>
   <v>       0.08333333       0.13888889       0.00000000 </v>
   <v>       0.13888889       0.13888889       0.00000000 </v>
   <v>       0.19444444       0.13888889       0.00000000 </v>
   <v>       0.25000000       0.13888889       0.00000000 </v>
   <v>       0.30555556       0.13888889       0.00000000 </v>
   <v>       0.36111111       0.13888889       0.00000000 </v>
   <v>       0.41666667       0.13888889       0.00000000 </v>
   <v>       0.47222222       0.13888889       0.00000000 </v>
   <v>      -0.47222222       0.13888889       0.00000000 </v>
   <v>      -0.41666667       0.13888889       0.00000000 </v>
   <v>      -0.36111111       0.13888889       0.00000000 </v>
   <v>      -0.30555556       0.13888889       0.00000000 </v>
   <v>      -0.25000000       0.13888889       0.00000000 </v>
   <v>      -0.19444444       0.13888889       0.00000000 </v>
   <v>      -0.13888889       0.13888889       0.00000000 </v>
   <v>      -0.08333333       0.13888889       0.00000000 </v>
   <v>      -0.02777778       0.13888889       0.00000000 </v>
   <v>       0.02777778       0.19444444       0.00000000 </v>
   <v>       0.08333333       0.19444444       0.00000000 </v>
   <v>       0.13888889       0.19444444       0.00000000 </v>
   <v>       0.19444444       0.19444444       0.00000000 </v>
   <v>       0.25000000       0.19444444       0.00000000 </v>
   <v>       0.30555556       0.19444444       0.00000000 </v>
   <v>       0.36111111       0.19444444       0.00000000 </v>
   <v>       0.41666667       0.19444444       0.00000000 </v>
   <v>       0.47222222       0.19444444       0.00000000 </v>
   <v>      -0.47222222       0.19444444       0.00000000 </v>
   <v>      -0.41666667       0.19444444       0.00000000 </v>
   <v>      -0.36111111       0.19444444       0.00000000 </v>
   <v>      -0.30555556       0.19444444       0.00000000 </v>
   <v>      -0.25000000       0.19444444       0.00000000 </v>
   <v>      -0.19444444       0.19444444       0.00000000 </v>
   <v>      -0.13888889       0.19444444       0.00000000 </v>
   <v>      -0.08333333       0.19444444       0.00000000 </v>
   <v>      -0.02777778       0.19444444       0.00000000 </v>
   <v>       0.02777778       0.25000000       0.00000000 </v>
   <v>       0.08333333       0.25000000       0.00000000 </v>
   <v>       0.13888889       0.25000000       0.00000000 </v>
   <v>       0.19444444       0.25000000       0.00000000 </v>
   <v>       0.25000000       0.25000000       0.00000000 </v>
   <v>       0.30555556       0.25000000       0.00000000 </v>
   <v>       0.36111111       0.25000000       0.00000000 </v>
   <v>       0.41666667       0.25000000       0.00000000 </v>
   <v>       0.47222222       0.25000000       0.00000000 </v>
   <v>      -0.47222222       0.25000000       0.00000000 </v>
   <v>      -0.41666667       0.25000000       0.00000000 </v>
   <v>      -0.36111111       0.25000000       0.00000000 </v>
   <v>      -0.30555556       0.25000000       0.00000000 </v>
   <v>      -0.25000000       0.25000000       0.00000000 </v>
   <v>      -0.19444444       0.25000000       0.00000000 </v>
   <v>      -0.13888889       0.25000000       0.00000000 </v>
   <v>      -0.08333333       0.25000000       0.00000000 </v>
   <v>      -0.02777778       0.25000000       0.00000000 </v>
   <v>       0.02777778       0.30555556       0.00000000 </v>
   <v>       0.08333333       0.30555556       0.00000000 </v>
   <v>       0.13888889       0.30555556       0.00000000 </v>
   <v>       0.19444444       0.30555556       0.00000000 </v>
   <v>       0.25000000       0.30555556       0.00000000 </v>
   <v>       0.30555556       0.30555556       0.00000000 </v>
   <v>       0.36111111       0.30555556       0.00000000 </v>
   <v>       0.41666667       0.30555556       0.00000000 </v>
   <v>       0.47222222       0.30555556       0.00000000 </v>
   <v>      -0.47222222       0.30555556       0.00000000 </v>
   <v>      -0.41666667       0.30555556       0.00000000 </v>
   <v>      -0.36111111       0.30555556       0.00000000 </v>
   <v>      -0.30555556       0.30555556       0.00000000 </v>
   <v>      -0.25000000       0.30555556       0.00000000 </v>
   <v>      -0.19444444       0.30555556       0.00000000 </v>
   <v>      -0.13888889       0.30555556       0.00000000 </v>
   <v>      -0.08333333       0.30555556       0.00000000 </v>
   <v>      -0.02777778       0.30555556       0.00000000 </v>
   <v>       0.02777778       0.36111111       0.00000000 </v>
   <v>       0.08333333       0.36111111       0.00000000 </v>
   <v>       0.13888889       0.36111111       0.00000000 </v>
   <v>       0.19444444       0.36111111       0.00000000 </v>
   <v>       0.25000000       0.36111111       0.00000000 </v>
   <v>       0.30555556       0.36111111       0.00000000 </v>
   <v>       0.36111111       0.36111111       0.00000000 </v>
   <v>       0.41666667       0.36111111       0.00000000 </v>
   <v>       0.47222222       0.36111111       0.00000000 </v>
   <v>      -0.47222222       0.36111111       0.00000000 </v>
   <v>      -0.41666667       0.36111111       0.00000000 </v>
   <v>      -0.36111111       0.36111111       0.00000000 </v>
   <v>      -0.30555556       0.36111111       0.00000000 </v>
   <v>      -0.25000000       0.36111111       0.00000000 </v>
   <v>      -0.19444444       0.36111111       0.00000000 </v>
   <v>      -0.13888889       0.36111111       0.00000000 </v>
   <v>      -0.08333333       0.36111111       0.00000000 </v>
   <v>      -0.02777778       0.36111111       0.00000000 </v>
   <v>       0.02777778       0.41666667       0.00000000 </v>
   <v>       0.08333333       0.41666667       0.00000000 </v>
   <v>       0.13888889       0.41666667       0.00000000 </v>
   <v>       0.19444444       0.41666667       0.00000000 </v>
   <v>       0.25000000       0.41666667       0.00000000 </v>
   <v>       0.30555556       0.41666667       0.00000000 </v>
   <v>       0.36111111       0.41666667       0.00000000 </v>
   <v>       0.41666667       0.41666667       0.00000000 </v>
   <v>       0.47222222       0.41666667       0.00000000 </v>
   <v>      -0.47222222       0.41666667       0.00000000 </v>
   <v>      -0.41666667       0.41666667       0.00000000 </v>
   <v>      -0.36111111       0.41666667       0.00000000 </v>
   <v>      -0.30555556       0.41666667       0.00000000 </v>
   <v>      -0.25000000       0.41666667       0.00000000 </v>
   <v>      -0.19444444       0.41666667       0.00000000 </v>
   <v>      -0.13888889       0.41666667       0.00000000 </v>
   <v>      -0.08333333       0.41666667       0.00000000 </v>
   <v>      -0.02777778       0.41666667       0.00000000 </v>
   <v>       0.02777778       0.47222222       0.00000000 </v>
   <v>       0.08333333       0.47222222       0.00000000 </v>
   <v>       0.13888889       0.47222222       0.00000000 </v>
   <v>       0.19444444       0.47222222       0.00000000 </v>
   <v>       0.25000000       0.47222222       0.00000000 </v>
   <v>       0.30555556       0.47222222       0.00000000 </v>
   <v>       0.36111111       0.47222222       0.00000000 </v>
   <v>       0.41666667       0.47222222       0.00000000 </v>
   <v>       0.47222222       0.47222222       0.00000000 </v>
   <v>      -0.47222222       0.47222222       0.00000000 </v>
   <v>      -0.41666667       0.47222222       0.00000000 </v>
   <v>      -0.36111111       0.47222222       0.00000000 </v>
   <v>      -0.30555556       0.47222222       0.00000000 </v>
   <v>      -0.25000000       0.47222222       0.00000000 </v>
   <v>      -0.19444444       0.47222222       0.00000000 </v>
   <v>      -0.13888889       0.47222222       0.00000000 </v>
   <v>      -0.08333333       0.47222222       0.00000000 </v>
   <v>      -0.02777778       0.47222222       0.00000000 </v>
   <v>       0.02777778      -0.47222222       0.00000000 </v>
   <v>       0.08333333      -0.47222222       0.00000000 </v>
   <v>       0.13888889      -0.47222222       0.00000000 </v>
   <v>       0.19444444      -0.47222222       0.00000000 </v>
   <v>       0.25000000      -0.47222222       0.00000000 </v>
   <v>       0.30555556      -0.47222222       0.00000000 </v>
   <v>       0.36111111      -0.47222222       0.00000000 </v>
   <v>       0.41666667      -0.47222222       0.00000000 </v>
   <v>       0.47222222      -0.47222222       0.00000000 </v>
   <v>      -0.47222222      -0.47222222       0.00000000 </v>
   <v>      -0.41666667      -0.47222222       0.00000000 </v>
   <v>      -0.36111111      -0.47222222       0.00000000 </v>
   <v>      -0.30555556      -0.47222222       0.00000000 </v>
   <v>      -0.25000000      -0.47222222       0.00000000 </v>
   <v>      -0.19444444      -0.47222222       0.00000000 </v>
   <v>      -0.13888889      -0.47222222       0.00000000 </v>
   <v>      -0.08333333      -0.47222222       0.00000000 </v>
   <v>      -0.02777778      -0.47222222       0.00000000 </v>
   <v>       0.02777778      -0.41666667       0.00000000 </v>
   <v>       0.08333333      -0.41666667       0.00000000 </v>
   <v>       0.13888889      -0.41666667       0.00000000 </v>
   <v>       0.19444444      -0.41666667       0.00000000 </v>
   <v>       0.25000000      -0.41666667       0.00000000 </v>
   <v>       0.30555556      -0.41666667       0.00000000 </v>
   <v>       0.36111111      -0.41666667       0.00000000 </v>
   <v>       0.41666667      -0.41666667       0.00000000 </v>
   <v>       0.47222222      -0.41666667       0.00000000 </v>
   <v>      -0.47222222      -0.41666667       0.00000000 </v>
   <v>      -0.41666667      -0.41666667       0.00000000 </v>
   <v>      -0.36111111      -0.41666667       0.00000000 </v>
   <v>      -0.30555556      -0.41666667       0.00000000 </v>
   <v>      -0.25000000      -0.41666667       0.00000000 </v>
   <v>      -0.19444444      -0.41666667       0.00000000 </v>
   <v>      -0.13888889      -0.41666667       0.00000000 </v>
   <v>      -0.08333333      -0.41666667       0.00000000 </v>
   <v>      -0.02777778      -0.41666667       0.00000000 </v>
   <v>       0.02777778      -0.36111111       0.00000000 </v>
   <v>       0.08333333      -0.36111111       0.00000000 </v>
   <v>       0.13888889      -0.36111111       0.00000000 </v>
   <v>       0.19444444      -0.36111111       0.00000000 </v>
   <v>       0.25000000      -0.36111111       0.00000000 </v>
   <v>       0.30555556      -0.36111111       0.00000000 </v>
   <v>       0.36111111      -0.36111111       0.00000000 </v>
   <v>       0.41666667      -0.36111111       0.00000000 </v>
   <v>       0.47222222      -0.36111111       0.00000000 </v>
   <v>      -0.47222222      -0.36111111       0.00000000 </v>
   <v>      -0.41666667      -0.36111111       0.00000000 </v>
   <v>      -0.36111111      -0.36111111       0.00000000 </v>
   <v>      -0.30555556      -0.36111111       0.00000000 </v>
   <v>      -0.25000000      -0.36111111       0.00000000 </v>
   <v>      -0.19444444      -0.36111111       0.00000000 </v>
   <v>      -0.13888889      -0.36111111       0.00000000 </v>
   <v>      -0.08333333      -0.36111111       0.00000000 </v>
   <v>      -0.02777778      -0.36111111       0.00000000 </v>
   <v>       0.02777778      -0.30555556       0.00000000 </v>
   <v>       0.08333333      -0.30555556       0.00000000 </v>
   <v>       0.13888889      -0.30555556       0.00000000 </v>
   <v>       0.19444444      -0.30555556       0.00000000 </v>
   <v>       0.25000000      -0.30555556       0.00000000 </v>
   <v>       0.30555556      -0.30555556       0.00000000 </v>
   <v>       0.36111111      -0.30555556       0.00000000 </v>
   <v>       0.41666667      -0.30555556       0.00000000 </v>
   <v>       0.47222222      -0.30555556       0.00000000 </v>
   <v>      -0.47222222      -0.30555556       0.00000000 </v>
   <v>      -0.41666667      -0.30555556       0.00000000 </v>
   <v>      -0.36111111      -0.30555556       0.00000000 </v>
   <v>      -0.30555556      -0.30555556       0.00000000 </v>
   <v>      -0.25000000      -0.30555556       0.00000000 </v>
   <v>      -0.19444444      -0.30555556       0.00000000 </v>
   <v>      -0.13888889      -0.30555556       0.00000000 </v>
   <v>      -0.08333333      -0.30555556       0.00000000 </v>
   <v>      -0.02777778      -0.30555556       0.00000000 </v>
   <v>       0.02777778      -0.25000000       0.00000000 </v>
   <v>       0.08333333      -0.25000000       0.00000000 </v>
   <v>       0.13888889      -0.25000000       0.00000000 </v>
   <v>       0.19444444      -0.25000000       0.00000000 </v>
   <v>       0.25000000      -0.25000000       0.00000000 </v>
   <v>       0.30555556      -0.25000000       0.00000000 </v>
   <v>       0.36111111      -0.25000000       0.00000000 </v>
   <v>       0.41666667      -0.25000000       0.00000000 </v>
   <v>       0.47222222      -0.25000000       0.00000000 </v>
   <v>      -0.47222222      -0.25000000       0.00000000 </v>
   <v>      -0.41666667      -0.25000000       0.00000000 </v>
   <v>      -0.36111111      -0.25000000       0.00000000 </v>
   <v>      -0.30555556      -0.25000000       0.00000000 </v>
   <v>      -0.25000000      -0.25000000       0.00000000 </v>
   <v>      -0.19444444      -0.25000000       0.00000000 </v>
   <v>      -0.13888889      -0.25000000       0.00000000 </v>
   <v>      -0.08333333      -0.25000000       0.00000000 </v>
   <v>      -0.02777778      -0.25000000       0.00000000 </v>
   <v>       0.02777778      -0.19444444       0.00000000 </v>
   <v>       0.08333333      -0.19444444       0.00000000 </v>
   <v>       0.13888889      -0.19444444       0.00000000 </v>
   <v>       0.19444444      -0.19444444       0.00000000 </v>
   <v>       0.25000000      -0.19444444       0.00000000 </v>
   <v>       0.30555556      -0.19444444       0.00000000 </v>
   <v>       0.36111111      -0.19444444       0.00000000 </v>
   <v>       0.41666667      -0.19444444       0.00000000 </v>
   <v>       0.47222222      -0.19444444       0.00000000 </v>
   <v>      -0.47222222      -0.19444444       0.00000000 </v>
   <v>      -0.41666667      -0.19444444       0.00000000 </v>
   <v>      -0.36111111      -0.19444444       0.00000000 </v>
   <v>      -0.30555556      -0.19444444       0.00000000 </v>
   <v>      -0.25000000      -0.19444444       0.00000000 </v>
   <v>      -0.19444444      -0.19444444       0.00000000 </v>
   <v>      -0.13888889      -0.19444444       0.00000000 </v>
   <v>      -0.08333333      -0.19444444       0.00000000 </v>
   <v>      -0.02777778      -0.19444444       0.00000000 </v>
   <v>       0.02777778      -0.13888889       0.00000000 </v>
   <v>       0.08333333      -0.13888889       0.00000000 </v>
   <v>       0.13888889      -0.13888889       0.00000000 </v>
   <v>       0.19444444      -0.13888889       0.00000000 </v>
   <v>       0.25000000      -0.13888889       0.00000000 </v>
   <v>       0.30555556      -0.13888889       0.00000000 </v>
   <v>       0.36111111      -0.13888889       0.00000000 </v>
   <v>       0.41666667      -0.13888889       0.00000000 </v>
   <v>       0.47222222      -0.13888889       0.00000000 </v>
   <v>      -0.47222222      -0.13888889       0.00000000 </v>
   <v>      -0.41666667      -0.13888889       0.00000000 </v>
   <v>      -0.36111111      -0.13888889       0.00000000 </v>
   <v>      -0.30555556      -0.13888889       0.00000000 </v>
   <v>      -0.25000000      -0.13888889       0.00000000 </v>
   <v>      -0.19444444      -0.13888889       0.00000000 </v>
   <v>      -0.13888889      -0.13888889       0.00000000 </v>
   <v>      -0.08333333      -0.13888889       0.00000000 </v>
   <v>      -0.02777778      -0.13888889       0.00000000 </v>
   <v>       0.02777778      -0.08333333       0.00000000 </v>
   <v>       0.08333333      -0.08333333       0.00000000 </v>
   <v>       0.13888889      -0.08333333       0.00000000 </v>
   <v>       0.19444444      -0.08333333       0.00000000 </v>
   <v>       0.25000000      -0.08333333       0.00000000 </v>
   <v>       0.30555556      -0.08333333       0.00000000 </v>
   <v>       0.36111111      -0.08333333       0.00000000 </v>
   <v>       0.41666667      -0.08333333       0.00000000 </v>
   <v>       0.47222222      -0.08333333       0.00000000 </v>
   <v>      -0.47222222      -0.08333333       0.00000000 </v>
   <v>      -0.41666667      -0.08333333       0.00000000 </v>
   <v>      -0.36111111      -0.08333333       0.00000000 </v>
   <v>      -0.30555556      -0.08333333       0.00000000 </v>
   <v>      -0.25000000      -0.08333333       0.00000000 </v>
   <v>      -0.19444444      -0.08333333       0.00000000 </v>
   <v>      -0.13888889      -0.08333333       0.00000000 </v>
   <v>      -0.08333333      -0.08333333       0.00000000 </v>
   <v>      -0.02777778      -0.08333333       0.00000000 </v>
   <v>       0.02777778      -0.02777778       0.00000000 </v>
   <v>       0.08333333      -0.02777778       0.00000000 </v>
   <v>       0.13888889      -0.02777778       0.00000000 </v>
   <v>       0.19444444      -0.02777778       0.00000000 </v>
   <v>       0.25000000      -0.02777778       0.00000000 </v>
   <v>       0.30555556      -0.02777778       0.00000000 </v>
   <v>       0.36111111      -0.02777778       0.00000000 </v>
   <v>       0.41666667      -0.02777778       0.00000000 </v>
   <v>       0.47222222      -0.02777778       0.00000000 </v>
   <v>      -0.47222222      -0.02777778       0.00000000 </v>
   <v>      -0.41666667      -0.02777778       0.00000000 </v>
   <v>      -0.36111111      -0.02777778       0.00000000 </v>
   <v>      -0.30555556      -0.02777778       0.00000000 </v>
   <v>      -0.25000000      -0.02777778       0.00000000 </v>
   <v>      -0.19444444      -0.02777778       0.00000000 </v>
   <v>      -0.13888889      -0.02777778       0.00000000 </v>
   <v>      -0.08333333      -0.02777778       0.00000000 </v>
   <v>      -0.02777778      -0.02777778       0.00000000 </v>
  </varray>
  <varray name="weights" >
   <v>       0.00308642 </v>
   <v>       0.00308642 </v>
   <v>       0.00308642 </v>
   <v>       0.00308642 </v>
   <v>       0.00308642 </v>
   <v>       0.00308642 </v>
   <v>       0.00308642 </v>
   <v>       0.00308642 </v>
   <v>       0.00308642 </v>
   <v>       0.00308642 </v>
   <v>       0.00308642 </v>
   <v>       0.00308642 </v>
   <v>       0.00308642 </v>
   <v>       0.00308642 </v>
   <v>       0.00308642 </v>
   <v>       0.00308642 </v>
   <v>       0.00308642 </v>
   <v>       0.00308642 </v>
   <v>       0.00308642 </v>
   <v>       0.00308642 </v>
   <v>       0.00308642 </v>
   <v>       0.00308642 </v>
   <v>       0.00308642 </v>
   <v>       0.00308642 </v>
   <v>       0.00308642 </v>
   <v>       0.00308642 </v>
   <v>       0.00308642 </v>
   <v>       0.00308642 </v>
   <v>       0.00308642 </v>
   <v>       0.00308642 </v>
   <v>       0.00308642 </v>
   <v>       0.00308642 </v>
   <v>       0.00308642 </v>
   <v>       0.00308642 </v>
   <v>       0.00308642 </v>
   <v>       0.00308642 </v>
   <v>       0.00308642 </v>
   <v>       0.00308642 </v>
   <v>       0.00308642 </v>
   <v>       0.00308642 </v>
   <v>       0.00308642 </v>
   <v>       0.00308642 </v>
   <v>       0.00308642 </v>
   <v>       0.00308642 </v>
   <v>       0.00308642 </v>
   <v>       0.00308642 </v>
   <v>       0.00308642 </v>
   <v>       0.00308642 </v>
   <v>       0.00308642 </v>
   <v>       0.00308642 </v>
   <v>       0.00308642 </v>
   <v>       0.00308642 </v>
   <v>       0.00308642 </v>
   <v>       0.00308642 </v>
   <v>       0.00308642 </v>
   <v>       0.00308642 </v>
   <v>       0.00308642 </v>
   <v>       0.00308642 </v>
   <v>       0.00308642 </v>
   <v>       0.00308642 </v>
   <v>       0.00308642 </v>
   <v>       0.00308642 </v>
   <v>       0.00308642 </v>
   <v>       0.00308642 </v>
   <v>       0.00308642 </v>
   <v>       0.00308642 </v>
   <v>       0.00308642 </v>
   <v>       0.00308642 </v>
   <v>       0.00308642 </v>
   <v>       0.00308642 </v>
   <v>       0.00308642 </v>
   <v>       0.00308642 </v>
   <v>       0.00308642 </v>
   <v>       0.00308642 </v>
   <v>       0.00308642 </v>
   <v>       0.00308642 </v>
   <v>       0.00308642 </v>
   <v>       0.00308642 </v>
   <v>       0.00308642 </v>
   <v>       0.00308642 </v>
   <v>       0.00308642 </v>
   <v>       0.00308642 </v>
   <v>       0.00308642 </v>
   <v>       0.00308642 </v>
   <v>       0.00308642 </v>
   <v>       0.00308642 </v>
   <v>       0.00308642 </v>
   <v>       0.00308642 </v>
   <v>       0.00308642 </v>
   <v>       0.00308642 </v>
   <v>       0.00308642 </v>
   <v>       0.00308642 </v>
   <v>       0.00308642 </v>
   <v>       0.00308642 </v>
   <v>       0.00308642 </v>
   <v>       0.00308642 </v>
   <v>       0.00308642 </v>
   <v>       0.00308642 </v>
   <v>       0.00308642 </v>
   <v>       0.00308642 </v>
   <v>       0.00308642 </v>
   <v>       0.00308642 </v>
   <v>       0.00308642 </v>
   <v>       0.00308642 </v>
   <v>       0.00308642 </v>
   <v>       0.00308642 </v>
   <v>       0.00308642 </v>
   <v>       0.00308642 </v>
   <v>       0.00308642 </v>
   <v>       0.00308642 </v>
   <v>       0.00308642 </v>
   <v>       0.00308642 </v>
   <v>       0.00308642 </v>
   <v>       0.00308642 </v>
   <v>       0.00308642 </v>
   <v>       0.00308642 </v>
   <v>       0.00308642 </v>
   <v>       0.00308642 </v>
   <v>       0.00308642 </v>
   <v>       0.00308642 </v>
   <v>       0.00308642 </v>
   <v>       0.00308642 </v>
   <v>       0.00308642 </v>
   <v>       0.00308642 </v>
   <v>       0.00308642 </v>
   <v>       0.00308642 </v>
   <v>       0.00308642 </v>
   <v>       0.00308642 </v>
   <v>       0.00308642 </v>
   <v>       0.00308642 </v>
   <v>       0.00308642 </v>
   <v>       0.00308642 </v>
   <v>       0.00308642 </v>
   <v>       0.00308642 </v>
   <v>       0.00308642 </v>
   <v>       0.00308642 </v>
   <v>       0.00308642 </v>
   <v>       0.00308642 </v>
   <v>       0.00308642 </v>
   <v>       0.00308642 </v>
   <v>       0.00308642 </v>
   <v>       0.00308642 </v>
   <v>       0.00308642 </v>
   <v>       0.00308642 </v>
   <v>       0.00308642 </v>
   <v>       0.00308642 </v>
   <v>       0.00308642 </v>
   <v>       0.00308642 </v>
   <v>       0.00308642 </v>
   <v>       0.00308642 </v>
   <v>       0.00308642 </v>
   <v>       0.00308642 </v>
   <v>       0.00308642 </v>
   <v>       0.00308642 </v>
   <v>       0.00308642 </v>
   <v>       0.00308642 </v>
   <v>       0.00308642 </v>
   <v>       0.00308642 </v>
   <v>       0.00308642 </v>
   <v>       0.00308642 </v>
   <v>       0.00308642 </v>
   <v>       0.00308642 </v>
   <v>       0.00308642 </v>
   <v>       0.00308642 </v>
   <v>       0.00308642 </v>
   <v>       0.00308642 </v>
   <v>       0.00308642 </v>
   <v>       0.00308642 </v>
   <v>       0.00308642 </v>
   <v>       0.00308642 </v>
   <v>       0.00308642 </v>
   <v>       0.00308642 </v>
   <v>       0.00308642 </v>
   <v>       0.00308642 </v>
   <v>       0.00308642 </v>
   <v>       0.00308642 </v>
   <v>       0.00308642 </v>
   <v>       0.00308642 </v>
   <v>       0.00308642 </v>
   <v>       0.00308642 </v>
   <v>       0.00308642 </v>
   <v>       0.00308642 </v>
   <v>       0.00308642 </v>
   <v>       0.00308642 </v>
   <v>       0.00308642 </v>
   <v>       0.00308642 </v>
   <v>       0.00308642 </v>
   <v>       0.00308642 </v>
   <v>       0.00308642 </v>
   <v>       0.00308642 </v>
   <v>       0.00308642 </v>
   <v>       0.00308642 </v>
   <v>       0.00308642 </v>
   <v>       0.00308642 </v>
   <v>       0.00308642 </v>
   <v>       0.00308642 </v>
   <v>       0.00308642 </v>
   <v>       0.00308642 </v>
   <v>       0.00308642 </v>
   <v>       0.00308642 </v>
   <v>       0.00308642 </v>
   <v>       0.00308642 </v>
   <v>       0.00308642 </v>
   <v>       0.00308642 </v>
   <v>       0.00308642 </v>
   <v>       0.00308642 </v>
   <v>       0.00308642 </v>
   <v>       0.00308642 </v>
   <v>       0.00308642 </v>
   <v>       0.00308642 </v>
   <v>       0.00308642 </v>
   <v>       0.00308642 </v>
   <v>       0.00308642 </v>
   <v>       0.00308642 </v>
   <v>       0.00308642 </v>
   <v>       0.00308642 </v>
   <v>       0.00308642 </v>
   <v>       0.00308642 </v>
   <v>       0.00308642 </v>
   <v>       0.00308642 </v>
   <v>       0.00308642 </v>
   <v>       0.00308642 </v>
   <v>       0.00308642 </v>
   <v>       0.00308642 </v>
   <v>       0.00308642 </v>
   <v>       0.00308642 </v>
   <v>       0.00308642 </v>
   <v>       0.00308642 </v>
   <v>       0.00308642 </v>
   <v>       0.00308642 </v>
   <v>       0.00308642 </v>
   <v>       0.00308642 </v>
   <v>       0.00308642 </v>
   <v>       0.00308642 </v>
   <v>       0.00308642 </v>
   <v>       0.00308642 </v>
   <v>       0.00308642 </v>
   <v>       0.00308642 </v>
   <v>       0.00308642 </v>
   <v>       0.00308642 </v>
   <v>       0.00308642 </v>
   <v>       0.00308642 </v>
   <v>       0.00308642 </v>
   <v>       0.00308642 </v>
   <v>       0.00308642 </v>
   <v>       0.00308642 </v>
   <v>       0.00308642 </v>
   <v>       0.00308642 </v>
   <v>       0.00308642 </v>
   <v>       0.00308642 </v>
   <v>       0.00308642 </v>
   <v>       0.00308642 </v>
   <v>       0.00308642 </v>
   <v>       0.00308642 </v>
   <v>       0.00308642 </v>
   <v>       0.00308642 </v>
   <v>       0.00308642 </v>
   <v>       0.00308642 </v>
   <v>       0.00308642 </v>
   <v>       0.00308642 </v>
   <v>       0.00308642 </v>
   <v>       0.00308642 </v>
   <v>       0.00308642 </v>
   <v>       0.00308642 </v>
   <v>       0.00308642 </v>
   <v>       0.00308642 </v>
   <v>       0.00308642 </v>
   <v>       0.00308642 </v>
   <v>       0.00308642 </v>
   <v>       0.00308642 </v>
   <v>       0.00308642 </v>
   <v>       0.00308642 </v>
   <v>       0.00308642 </v>
   <v>       0.00308642 </v>
   <v>       0.00308642 </v>
   <v>       0.00308642 </v>
   <v>       0.00308642 </v>
   <v>       0.00308642 </v>
   <v>       0.00308642 </v>
   <v>       0.00308642 </v>
   <v>       0.00308642 </v>
   <v>       0.00308642 </v>
   <v>       0.00308642 </v>
   <v>       0.00308642 </v>
   <v>       0.00308642 </v>
   <v>       0.00308642 </v>
   <v>       0.00308642 </v>
   <v>       0.00308642 </v>
   <v>       0.00308642 </v>
   <v>       0.00308642 </v>
   <v>       0.00308642 </v>
   <v>       0.00308642 </v>
   <v>       0.00308642 </v>
   <v>       0.00308642 </v>
   <v>       0.00308642 </v>
   <v>       0.00308642 </v>
   <v>       0.00308642 </v>
   <v>       0.00308642 </v>
   <v>       0.00308642 </v>
   <v>       0.00308642 </v>
   <v>       0.00308642 </v>
   <v>       0.00308642 </v>
   <v>       0.00308642 </v>
   <v>       0.00308642 </v>
   <v>       0.00308642 </v>
   <v>       0.00308642 </v>
   <v>       0.00308642 </v>
   <v>       0.00308642 </v>
   <v>       0.00308642 </v>
   <v>       0.00308642 </v>
   <v>       0.00308642 </v>
   <v>       0.00308642 </v>
   <v>       0.00308642 </v>
   <v>       0.00308642 </v>
   <v>       0.00308642 </v>
   <v>       0.00308642 </v>
   <v>       0.00308642 </v>
   <v>       0.00308642 </v>
   <v>       0.00308642 </v>
   <v>       0.00308642 </v>
   <v>       0.00308642 </v>
   <v>       0.00308642 </v>
   <v>       0.00308642 </v>
   <v>       0.00308642 </v>
  </varray>
 </kpoints>
 <parameters>
  <separator name="general" >
   <i type="string" name="SYSTEM">2D MoTe2 in a box</i>
   <i type="logical" name="LCOMPAT"> F  </i>
  </separator>
  <separator name="electronic" >
   <i type="string" name="PREC">accura</i>
   <i name="ENMAX">    350.00000000</i>
   <i name="ENAUG">    368.79200000</i>
   <i name="EDIFF">      0.00000001</i>
   <i type="int" name="IALGO">    38</i>
   <i type="int" name="IWAVPR">    10</i>
   <i type="int" name="NBANDS">    52</i>
   <i name="NELECT">     36.00000000</i>
   <i type="int" name="TURBO">     0</i>
   <i type="int" name="IRESTART">     0</i>
   <i type="int" name="NREBOOT">     0</i>
   <i type="int" name="NMIN">     0</i>
   <i name="EREF">      0.00000000</i>
   <separator name="electronic smearing" >
    <i type="int" name="ISMEAR">    -1</i>
    <i name="SIGMA">      0.00862174</i>
    <i name="KSPACING">      0.50000000</i>
    <i type="logical" name="KGAMMA"> T  </i>
   </separator>
   <separator name="electronic projectors" >
    <i type="logical" name="LREAL"> F  </i>
    <v name="ROPT">      0.00000000      0.00000000</v>
    <i type="int" name="LMAXPAW">  -100</i>
    <i type="int" name="LMAXMIX">     4</i>
    <i type="logical" name="NLSPLINE"> F  </i>
   </separator>
   <separator name="electronic startup" >
    <i type="int" name="ISTART">     0</i>
    <i type="int" name="ICHARG">     1</i>
    <i type="int" name="INIWAV">     1</i>
   </separator>
   <separator name="electronic spin" >
    <i type="int" name="ISPIN">     1</i>
    <i type="logical" name="LNONCOLLINEAR"> T  </i>
    <v name="MAGMOM">      1.00000000      1.00000000      1.00000000      1.00000000      1.00000000      1.00000000      1.00000000      1.00000000      1.00000000      1.00000000      1.00000000      1.00000000      1.00000000      1.00000000      1.00000000      1.00000000      1.00000000      1.00000000</v>
    <i name="NUPDOWN">     -1.00000000</i>
    <i type="logical" name="LSORBIT"> T  </i>
    <v name="SAXIS">      0.00000000      0.00000000      1.00000000</v>
    <i type="logical" name="LSPIRAL"> F  </i>
    <v name="QSPIRAL">      0.00000000      0.00000000      0.00000000</v>
    <i type="logical" name="LZEROZ"> F  </i>
   </separator>
   <separator name="electronic exchange-correlation" >
    <i type="logical" name="LASPH"> F  </i>
    <i type="logical" name="LMETAGGA"> F  </i>
   </separator>
   <separator name="electronic convergence" >
    <i type="int" name="NELM">    60</i>
    <i type="int" name="NELMDL">    -5</i>
    <i type="int" name="NELMIN">     2</i>
    <i name="ENINI">    350.00000000</i>
    <separator name="electronic convergence detail" >
     <i type="logical" name="LDIAG"> T  </i>
     <i type="logical" name="LSUBROT"> F  </i>
     <i name="WEIMIN">      0.00000000</i>
     <i name="EBREAK">      0.00000000</i>
     <i name="DEPER">      0.30000000</i>
     <i type="int" name="NRMM">     4</i>
     <i name="TIME">      0.40000000</i>
    </separator>
   </separator>
   <separator name="electronic mixer" >
    <i name="AMIX">      0.40000000</i>
    <i name="BMIX">      1.00000000</i>
    <i name="AMIN">      0.10000000</i>
    <i name="AMIX_MAG">      1.60000000</i>
    <i name="BMIX_MAG">      1.00000000</i>
    <separator name="electronic mixer details" >
     <i type="int" name="IMIX">     4</i>
     <i type="int" name="MAXMIX">   -45</i>
     <i name="WC">    100.00000000</i>
     <i type="int" name="INIMIX">     1</i>
     <i type="int" name="MIXPRE">     1</i>
     <i type="int" name="MREMOVE">     5</i>
    </separator>
   </separator>
   <separator name="electronic dipolcorrection" >
    <i type="logical" name="LDIPOL"> F  </i>
    <i type="logical" name="LMONO"> F  </i>
    <i type="int" name="IDIPOL">     0</i>
    <i name="EPSILON">      1.00000000</i>
    <v name="DIPOL">   -100.00000000   -100.00000000   -100.00000000</v>
    <i name="EFIELD">      0.00000000</i>
   </separator>
  </separator>
  <separator name="grids" >
   <i type="int" name="NGX">    24</i>
   <i type="int" name="NGY">    40</i>
   <i type="int" name="NGZ">    98</i>
   <i type="int" name="NGXF">    48</i>
   <i type="int" name="NGYF">    80</i>
   <i type="int" name="NGZF">   196</i>
   <i type="logical" name="ADDGRID"> F  </i>
  </separator>
  <separator name="ionic" >
   <i type="int" name="NSW">     1</i>
   <i type="int" name="IBRION">    -1</i>
   <i type="int" name="ISIF">     2</i>
   <i name="PSTRESS">      0.00000000</i>
   <i name="EDIFFG">      0.00000010</i>
   <i type="int" name="NFREE">     0</i>
   <i name="POTIM">      0.50000000</i>
   <i name="SMASS">     -3.00000000</i>
   <i name="SCALEE">      1.00000000</i>
  </separator>
  <separator name="ionic md" >
   <i name="TEBEG">      0.00010000</i>
   <i name="TEEND">      0.00010000</i>
   <i type="int" name="NBLOCK">     1</i>
   <i type="int" name="KBLOCK">     1</i>
   <i type="int" name="NPACO">   256</i>
   <i name="APACO">     16.00000000</i>
  </separator>
  <separator name="symmetry" >
   <i type="int" name="ISYM">     0</i>
   <i name="SYMPREC">      0.00001000</i>
  </separator>
  <separator name="dos" >
   <i type="logical" name="LORBIT"> F  </i>
   <v name="RWIGS">     -1.00000000     -1.00000000</v>
   <i type="int" name="NEDOS">   301</i>
   <i name="EMIN">     10.00000000</i>
   <i name="EMAX">    -10.00000000</i>
   <i name="EFERMI">      0.00000000</i>
  </separator>
  <separator name="writing" >
   <i type="int" name="NWRITE">     3</i>
   <i type="logical" name="LWAVE"> F  </i>
   <i type="logical" name="LCHARG"> F  </i>
   <i type="logical" name="LPARD"> F  </i>
   <i type="logical" name="LVTOT"> F  </i>
   <i type="logical" name="LVHAR"> F  </i>
   <i type="logical" name="LELF"> F  </i>
   <i type="logical" name="LOPTICS"> F  </i>
   <v name="STM">      0.00000000      0.00000000      0.00000000      0.00000000      0.00000000      0.00000000      0.00000000</v>
  </separator>
  <separator name="performance" >
   <i type="int" name="NPAR">     4</i>
   <i type="int" name="NSIM">     4</i>
   <i type="int" name="NBLK">    -1</i>
   <i type="logical" name="LPLANE"> T  </i>
   <i type="logical" name="LSCALAPACK"> T  </i>
   <i type="logical" name="LSCAAWARE"> F  </i>
   <i type="logical" name="LSCALU"> F  </i>
   <i type="logical" name="LASYNC"> F  </i>
   <i type="logical" name="LORBITALREAL"> F  </i>
  </separator>
  <separator name="miscellaneous" >
   <i type="int" name="IDIOT">     3</i>
   <i type="logical" name="LMUSIC"> F  </i>
   <v name="POMASS">    127.60000000     95.94000000</v>
   <v name="DARWINR">      0.00000000      0.00000000</v>
   <v name="DARWINV">      1.00000000      1.00000000</v>
   <i type="logical" name="LCORR"> T  </i>
  </separator>
  <i type="logical" name="GGA_COMPAT"> T  </i>
  <i type="logical" name="LBERRY"> F  </i>
  <i type="int" name="ICORELEVEL">     0</i>
  <i type="logical" name="LDAU"> F  </i>
  <i type="int" name="I_CONSTRAINED_M">     0</i>
  <separator name="electronic exchange-correlation" >
   <i type="string" name="GGA">--</i>
   <i type="int" name="VOSKOWN">     0</i>
   <i type="logical" name="LHFCALC"> F  </i>
   <i type="string" name="PRECFOCK"></i>
   <i type="logical" name="LSYMGRAD"> F  </i>
   <i type="logical" name="LHFONE"> F  </i>
   <i type="logical" name="LRHFCALC"> F  </i>
   <i type="logical" name="LTHOMAS"> F  </i>
   <i type="logical" name="LMODELHF"> F  </i>
   <i name="ENCUT4O">     -1.00000000</i>
   <i type="int" name="EXXOEP">     0</i>
   <i type="int" name="FOURORBIT">     0</i>
   <i name="AEXX">      0.00000000</i>
   <i name="HFALPHA">      0.00000000</i>
   <i name="MCALPHA">      0.00000000</i>
   <i name="ALDAX">      1.00000000</i>
   <i name="AGGAX">      1.00000000</i>
   <i name="ALDAC">      1.00000000</i>
   <i name="AGGAC">      1.00000000</i>
   <i type="int" name="NKREDX">     1</i>
   <i type="int" name="NKREDY">     1</i>
   <i type="int" name="NKREDZ">     1</i>
   <i type="logical" name="SHIFTRED"> F  </i>
   <i type="logical" name="ODDONLY"> F  </i>
   <i type="logical" name="EVENONLY"> F  </i>
   <i type="int" name="LMAXFOCK">     0</i>
   <i type="int" name="NMAXFOCKAE">     0</i>
   <i type="logical" name="LFOCKAEDFT"> F  </i>
   <i name="HFSCREEN">      0.00000000</i>
   <i name="HFSCREENC">      0.00000000</i>
   <i type="int" name="NBANDSGWLOW">     0</i>
  </separator>
  <separator name="vdW DFT" >
   <i type="logical" name="LUSE_VDW"> F  </i>
   <i name="Zab_VDW">     -0.84910000</i>
   <i name="PARAM1">      0.12340000</i>
   <i name="PARAM2">      1.00000000</i>
   <i name="PARAM3">      0.00000000</i>
  </separator>
  <separator name="model GW" >
   <i type="int" name="MODEL_GW">     0</i>
   <i name="MODEL_EPS0">     35.17173760</i>
   <i name="MODEL_ALPHA">      1.00000000</i>
  </separator>
  <separator name="linear response parameters" >
   <i type="logical" name="LEPSILON"> F  </i>
   <i type="logical" name="LRPA"> F  </i>
   <i type="logical" name="LNABLA"> F  </i>
   <i type="logical" name="LVEL"> F  </i>
   <i type="int" name="KINTER">     0</i>
   <i name="CSHIFT">      0.10000000</i>
   <i name="OMEGAMAX">     -1.00000000</i>
   <i name="DEG_THRESHOLD">      0.00200000</i>
  </separator>
  <separator name="orbital magnetization" >
   <i type="logical" name="NUCIND"> F  </i>
   <v name="MAGPOS">      0.00000000      0.00000000      0.00000000</v>
   <i type="logical" name="LNICSALL"> T  </i>
   <i type="logical" name="ORBITALMAG"> F  </i>
   <i type="logical" name="LMAGBLOCH"> F  </i>
   <i type="logical" name="LCHIMAG"> F  </i>
   <i type="logical" name="LGAUGE"> T  </i>
   <i type="int" name="MAGATOM">     0</i>
   <v name="MAGDIPOL">      0.00000000      0.00000000      0.00000000</v>
   <v name="AVECCONST">      0.00000000      0.00000000      0.00000000</v>
  </separator>
  <separator name="response functions" >
   <i type="logical" name="LADDER"> F  </i>
   <i type="logical" name="LFXC"> F  </i>
   <i type="logical" name="LHARTREE"> T  </i>
   <i type="int" name="IBSE">     0</i>
   <i type="logical" name="LTCTE"> F  </i>
   <i type="logical" name="LTETE"> F  </i>
   <i type="logical" name="LTRIPLET"> F  </i>
   <i type="logical" name="LFXCEPS"> F  </i>
   <i type="logical" name="LFXHEG"> F  </i>
   <i type="logical" name="L2ORDER"> F  </i>
   <i type="logical" name="LUSEW"> F  </i>
   <i name="ENCUTGW">     -2.00000000</i>
   <i name="ENCUTGWSOFT">     -2.00000000</i>
   <i name="ENCUTLF">     -1.00000000</i>
   <i type="int" name="LMAXMP2">    -1</i>
   <i name="SCISSOR">      0.00000000</i>
   <i type="int" name="NOMEGA">     0</i>
   <i type="int" name="NOMEGAR">     0</i>
   <i type="int" name="NBANDSGW">    -1</i>
   <i type="int" name="NBANDSO">    -1</i>
   <i type="int" name="NBANDSV">    -1</i>
   <i type="int" name="NELM">     1</i>
   <i type="int" name="DIM">     3</i>
   <i type="int" name="ANTIRES">     0</i>
   <i name="OMEGAMAX">    -30.00000000</i>
   <i name="OMEGAMIN">    -30.00000000</i>
   <i name="OMEGATL">   -200.00000000</i>
   <i type="int" name="OMEGAGRID">     0</i>
   <i name="CSHIFT">     -0.10000000</i>
   <i type="logical" name="SELFENERGY"> F  </i>
   <i type="logical" name="LSPECTRAL"> F  </i>
   <i type="logical" name="ODDONLYGW"> F  </i>
   <i type="logical" name="EVENONLYGW"> F  </i>
   <i type="int" name="NKREDLFX">     1</i>
   <i type="int" name="NKREDLFY">     1</i>
   <i type="int" name="NKREDLFZ">     1</i>
   <i type="int" name="MAXMEM">  1800</i>
   <i type="int" name="TELESCOPE">     0</i>
   <i type="int" name="TAUPAR">     1</i>
  </separator>
  <separator name="External order field" >
   <i name="OFIELD_KAPPA">      0.00000000</i>
   <v name="OFIELD_K">      0.00000000      0.00000000      0.00000000</v>
   <i name="OFIELD_Q6_NEAR">      0.00000000</i>
   <i name="OFIELD_Q6_FAR">      0.00000000</i>
   <i name="OFIELD_A">      0.00000000</i>
  </separator>
 </parameters>
 <atominfo>
  <atoms>       6 </atoms>
  <types>       2 </types>
  <array name="atoms" >
   <dimension dim="1">ion</dimension>
   <field type="string">element</field>
   <field type="int">atomtype</field>
   <set>
    <rc><c>Te</c><c>   1</c></rc>
    <rc><c>Te</c><c>   1</c></rc>
    <rc><c>Te</c><c>   1</c></rc>
    <rc><c>Te</c><c>   1</c></rc>
    <rc><c>Mo</c><c>   2</c></rc>
    <rc><c>Mo</c><c>   2</c></rc>
   </set>
  </array>
  <array name="atomtypes" >
   <dimension dim="1">type</dimension>
   <field type="int">atomspertype</field>
   <field type="string">element</field>
   <field>mass</field>
   <field>valence</field>
   <field type="string">pseudopotential</field>
   <set>
    <rc><c>   4</c><c>Te</c><c>    127.60000000</c><c>      6.00000000</c><c>  PAW_PBE Te 08Apr2002                  </c></rc>
    <rc><c>   2</c><c>Mo</c><c>     95.94000000</c><c>      6.00000000</c><c>  PAW_PBE Mo 08Apr2002                  </c></rc>
   </set>
  </array>
 </atominfo>
 <structure name="initialpos" >
  <crystal>
   <varray name="basis" >
    <v>       3.45200000       0.00000000       0.00000000 </v>
    <v>       0.00000000       6.36800000       0.00000000 </v>
    <v>       0.00000000       0.00000000      16.00000000 </v>
   </varray>
   <i name="volume">    351.71737600 </i>
   <varray name="rec_basis" >
    <v>       0.28968714       0.00000000       0.00000000 </v>
    <v>       0.00000000       0.15703518       0.00000000 </v>
    <v>       0.00000000       0.00000000       0.06250000 </v>
   </varray>
  </crystal>
  <varray name="positions" >
   <v>       0.50000000       0.10163317       0.12913313 </v>
   <v>       0.50000000       0.74915672       0.90758437 </v>
   <v>       0.00000000       0.25741049       0.87086563 </v>
   <v>       0.00000000       0.60988065       0.09241625 </v>
   <v>       0.50000000       0.36059673       0.99406750 </v>
   <v>       0.00000000       0.99843907       0.00593312 </v>
  </varray>
  <varray name="velocities" >
   <v>       0.00000000       0.00000000       0.00000000 </v>
   <v>       0.00000000       0.00000000       0.00000000 </v>
   <v>       0.00000000       0.00000000       0.00000000 </v>
   <v>       0.00000000       0.00000000       0.00000000 </v>
   <v>       0.00000000       0.00000000       0.00000000 </v>
   <v>       0.00000000       0.00000000       0.00000000 </v>
  </varray>
 </structure>
 <calculation>
  <scstep>
   <time name="dav">   29.33   29.36</time>
   <time name="total">   29.54   29.58</time>
   <energy>
    <i name="alphaZ">     25.19170377 </i>
    <i name="ewald">   1706.63235767 </i>
    <i name="hartreedc">  -2986.48471468 </i>
    <i name="XCdc">   -232.30836840 </i>
    <i name="pawpsdc">   1360.83430447 </i>
    <i name="pawaedc">  -1064.48850357 </i>
    <i name="eentropy">     -0.00089013 </i>
    <i name="bandstr">     51.14260515 </i>
    <i name="atom">   1328.10454569 </i>
    <i name="e_fr_energy">    188.62303997 </i>
    <i name="e_wo_entrp">    188.62393010 </i>
    <i name="e_0_energy">    188.62348504 </i>
   </energy>
  </scstep>
  <scstep>
   <time name="dav">   37.00   37.04</time>
   <time name="total">   37.03   37.08</time>
   <energy>
    <i name="e_fr_energy">    -12.13646502 </i>
    <i name="e_wo_entrp">    -12.13594401 </i>
    <i name="e_0_energy">    -12.13620452 </i>
   </energy>
  </scstep>
  <scstep>
   <time name="dav">   33.76   33.79</time>
   <time name="total">   33.79   33.84</time>
   <energy>
    <i name="e_fr_energy">    -34.10318925 </i>
    <i name="e_wo_entrp">    -34.10249451 </i>
    <i name="e_0_energy">    -34.10284188 </i>
   </energy>
  </scstep>
  <scstep>
   <time name="dav">   36.03   36.07</time>
   <time name="total">   36.06   36.12</time>
   <energy>
    <i name="e_fr_energy">    -35.03010168 </i>
    <i name="e_wo_entrp">    -35.02939735 </i>
    <i name="e_0_energy">    -35.02974952 </i>
   </energy>
  </scstep>
  <scstep>
   <time name="dav">   35.90   35.97</time>
   <time name="total">   37.43   37.50</time>
   <energy>
    <i name="e_fr_energy">    -35.05461469 </i>
    <i name="e_wo_entrp">    -35.05390649 </i>
    <i name="e_0_energy">    -35.05426059 </i>
   </energy>
  </scstep>
  <scstep>
   <time name="dav">   29.72   29.75</time>
   <time name="total">   31.40   31.44</time>
   <energy>
    <i name="e_fr_energy">    -28.18062995 </i>
    <i name="e_wo_entrp">    -28.18005990 </i>
    <i name="e_0_energy">    -28.18034492 </i>
   </energy>
  </scstep>
  <scstep>
   <time name="dav">   33.88   33.94</time>
   <time name="total">   35.56   35.65</time>
   <energy>
    <i name="e_fr_energy">    -29.07091395 </i>
    <i name="e_wo_entrp">    -29.07019295 </i>
    <i name="e_0_energy">    -29.07055345 </i>
   </energy>
  </scstep>
  <scstep>
   <time name="dav">   32.29   32.33</time>
   <time name="total">   33.97   34.02</time>
   <energy>
    <i name="e_fr_energy">    -28.74266342 </i>
    <i name="e_wo_entrp">    -28.74183035 </i>
    <i name="e_0_energy">    -28.74224688 </i>
   </energy>
  </scstep>
  <scstep>
   <time name="dav">   30.28   30.31</time>
   <time name="total">   31.96   32.01</time>
   <energy>
    <i name="e_fr_energy">    -30.44838449 </i>
    <i name="e_wo_entrp">    -30.44773748 </i>
    <i name="e_0_energy">    -30.44806098 </i>
   </energy>
  </scstep>
  <scstep>
   <time name="dav">   30.16   30.19</time>
   <time name="total">   31.85   31.90</time>
   <energy>
    <i name="e_fr_energy">    -32.15635755 </i>
    <i name="e_wo_entrp">    -32.15594508 </i>
    <i name="e_0_energy">    -32.15615132 </i>
   </energy>
  </scstep>
  <scstep>
   <time name="dav">   31.83   31.86</time>
   <time name="total">   33.50   33.55</time>
   <energy>
    <i name="e_fr_energy">    -34.96399884 </i>
    <i name="e_wo_entrp">    -34.96358563 </i>
    <i name="e_0_energy">    -34.96379224 </i>
   </energy>
  </scstep>
  <scstep>
   <time name="dav">   32.72   32.75</time>
   <time name="total">   34.40   34.45</time>
   <energy>
    <i name="e_fr_energy">    -35.96268393 </i>
    <i name="e_wo_entrp">    -35.96228786 </i>
    <i name="e_0_energy">    -35.96248590 </i>
   </energy>
  </scstep>
  <scstep>
   <time name="dav">   33.54   33.58</time>
   <time name="total">   35.23   35.27</time>
   <energy>
    <i name="e_fr_energy">    -36.19698105 </i>
    <i name="e_wo_entrp">    -36.19655944 </i>
    <i name="e_0_energy">    -36.19677024 </i>
   </energy>
  </scstep>
  <scstep>
   <time name="dav">   31.19   31.24</time>
   <time name="total">   32.87   32.92</time>
   <energy>
    <i name="e_fr_energy">    -36.26050652 </i>
    <i name="e_wo_entrp">    -36.26006460 </i>
    <i name="e_0_energy">    -36.26028556 </i>
   </energy>
  </scstep>
  <scstep>
   <time name="dav">   33.40   33.45</time>
   <time name="total">   35.08   35.16</time>
   <energy>
    <i name="e_fr_energy">    -36.32612186 </i>
    <i name="e_wo_entrp">    -36.32565406 </i>
    <i name="e_0_energy">    -36.32588796 </i>
   </energy>
  </scstep>
  <scstep>
   <time name="dav">   33.55   33.62</time>
   <time name="total">   35.26   35.37</time>
   <energy>
    <i name="e_fr_energy">    -36.37155906 </i>
    <i name="e_wo_entrp">    -36.37108538 </i>
    <i name="e_0_energy">    -36.37132222 </i>
   </energy>
  </scstep>
  <scstep>
   <time name="dav">   33.01   33.04</time>
   <time name="total">   34.67   34.72</time>
   <energy>
    <i name="e_fr_energy">    -36.40753392 </i>
    <i name="e_wo_entrp">    -36.40705637 </i>
    <i name="e_0_energy">    -36.40729514 </i>
   </energy>
  </scstep>
  <scstep>
   <time name="dav">   34.92   34.95</time>
   <time name="total">   36.59   36.64</time>
   <energy>
    <i name="e_fr_energy">    -36.42469229 </i>
    <i name="e_wo_entrp">    -36.42421347 </i>
    <i name="e_0_energy">    -36.42445288 </i>
   </energy>
  </scstep>
  <scstep>
   <time name="dav">   33.77   33.81</time>
   <time name="total">   35.46   35.52</time>
   <energy>
    <i name="e_fr_energy">    -36.42830557 </i>
    <i name="e_wo_entrp">    -36.42782597 </i>
    <i name="e_0_energy">    -36.42806577 </i>
   </energy>
  </scstep>
  <scstep>
   <time name="dav">   33.75   33.79</time>
   <time name="total">   35.43   35.47</time>
   <energy>
    <i name="e_fr_energy">    -36.43167646 </i>
    <i name="e_wo_entrp">    -36.43119635 </i>
    <i name="e_0_energy">    -36.43143640 </i>
   </energy>
  </scstep>
  <scstep>
   <time name="dav">   34.57   34.60</time>
   <time name="total">   36.24   36.29</time>
   <energy>
    <i name="e_fr_energy">    -36.43311648 </i>
    <i name="e_wo_entrp">    -36.43263596 </i>
    <i name="e_0_energy">    -36.43287622 </i>
   </energy>
  </scstep>
  <scstep>
   <time name="dav">   34.57   34.63</time>
   <time name="total">   36.24   36.33</time>
   <energy>
    <i name="e_fr_energy">    -36.43335300 </i>
    <i name="e_wo_entrp">    -36.43287184 </i>
    <i name="e_0_energy">    -36.43311242 </i>
   </energy>
  </scstep>
  <scstep>
   <time name="dav">   34.43   34.47</time>
   <time name="total">   36.11   36.16</time>
   <energy>
    <i name="e_fr_energy">    -36.43344775 </i>
    <i name="e_wo_entrp">    -36.43296672 </i>
    <i name="e_0_energy">    -36.43320723 </i>
   </energy>
  </scstep>
  <scstep>
   <time name="dav">   32.06   32.09</time>
   <time name="total">   33.74   33.78</time>
   <energy>
    <i name="e_fr_energy">    -36.43350773 </i>
    <i name="e_wo_entrp">    -36.43302658 </i>
    <i name="e_0_energy">    -36.43326715 </i>
   </energy>
  </scstep>
  <scstep>
   <time name="dav">   33.44   33.51</time>
   <time name="total">   35.12   35.34</time>
   <energy>
    <i name="e_fr_energy">    -36.43352791 </i>
    <i name="e_wo_entrp">    -36.43304668 </i>
    <i name="e_0_energy">    -36.43328729 </i>
   </energy>
  </scstep>
  <scstep>
   <time name="dav">   33.48   33.51</time>
   <time name="total">   35.15   35.20</time>
   <energy>
    <i name="e_fr_energy">    -36.43356068 </i>
    <i name="e_wo_entrp">    -36.43307950 </i>
    <i name="e_0_energy">    -36.43332009 </i>
   </energy>
  </scstep>
  <scstep>
   <time name="dav">   33.18   33.22</time>
   <time name="total">   34.85   34.90</time>
   <energy>
    <i name="e_fr_energy">    -36.43358523 </i>
    <i name="e_wo_entrp">    -36.43310404 </i>
    <i name="e_0_energy">    -36.43334463 </i>
   </energy>
  </scstep>
  <scstep>
   <time name="dav">   33.00   33.04</time>
   <time name="total">   34.69   34.75</time>
   <energy>
    <i name="e_fr_energy">    -36.43358702 </i>
    <i name="e_wo_entrp">    -36.43310582 </i>
    <i name="e_0_energy">    -36.43334642 </i>
   </energy>
  </scstep>
  <scstep>
   <time name="dav">   30.30   30.34</time>
   <time name="total">   31.98   32.03</time>
   <energy>
    <i name="e_fr_energy">    -36.43358837 </i>
    <i name="e_wo_entrp">    -36.43310718 </i>
    <i name="e_0_energy">    -36.43334778 </i>
   </energy>
  </scstep>
  <scstep>
   <time name="dav">   29.82   29.86</time>
   <time name="total">   31.49   31.54</time>
   <energy>
    <i name="e_fr_energy">    -36.43358969 </i>
    <i name="e_wo_entrp">    -36.43310850 </i>
    <i name="e_0_energy">    -36.43334910 </i>
   </energy>
  </scstep>
  <scstep>
   <time name="dav">   30.13   30.17</time>
   <time name="total">   31.82   31.89</time>
   <energy>
    <i name="e_fr_energy">    -36.43359081 </i>
    <i name="e_wo_entrp">    -36.43310962 </i>
    <i name="e_0_energy">    -36.43335022 </i>
   </energy>
  </scstep>
  <scstep>
   <time name="dav">   28.61   28.63</time>
   <time name="total">   30.35   30.40</time>
   <energy>
    <i name="e_fr_energy">    -36.43359091 </i>
    <i name="e_wo_entrp">    -36.43310973 </i>
    <i name="e_0_energy">    -36.43335032 </i>
   </energy>
  </scstep>
  <scstep>
   <time name="dav">   23.84   23.87</time>
   <time name="total">   25.53   25.58</time>
   <energy>
    <i name="e_fr_energy">    -36.43359094 </i>
    <i name="e_wo_entrp">    -36.43310976 </i>
    <i name="e_0_energy">    -36.43335035 </i>
   </energy>
  </scstep>
  <scstep>
   <time name="dav">   23.86   23.93</time>
   <time name="total">   25.55   25.63</time>
   <energy>
    <i name="e_fr_energy">    -36.43359096 </i>
    <i name="e_wo_entrp">    -36.43310977 </i>
    <i name="e_0_energy">    -36.43335036 </i>
   </energy>
  </scstep>
  <scstep>
   <time name="dav">   21.46   21.49</time>
   <time name="total">   21.64   21.69</time>
   <energy>
    <i name="alphaZ">     25.19170377 </i>
    <i name="ewald">   1706.63235767 </i>
    <i name="hartreedc">  -3006.43390927 </i>
    <i name="XCdc">   -232.29901269 </i>
    <i name="pawpsdc">   2887.40059945 </i>
    <i name="pawaedc">  -2593.87442580 </i>
    <i name="eentropy">     -0.00048119 </i>
    <i name="bandstr">   -151.15496859 </i>
    <i name="atom">   1328.10454569 </i>
    <i name="e_fr_energy">    -36.43359096 </i>
    <i name="e_wo_entrp">    -36.43310977 </i>
    <i name="e_0_energy">    -36.43335037 </i>
   </energy>
  </scstep>
  <structure>
   <crystal>
    <varray name="basis" >
     <v>       3.45200000       0.00000000       0.00000000 </v>
     <v>       0.00000000       6.36800000       0.00000000 </v>
     <v>       0.00000000       0.00000000      16.00000000 </v>
    </varray>
    <i name="volume">    351.71737600 </i>
    <varray name="rec_basis" >
     <v>       0.28968714       0.00000000       0.00000000 </v>
     <v>       0.00000000       0.15703518       0.00000000 </v>
     <v>       0.00000000       0.00000000       0.06250000 </v>
    </varray>
   </crystal>
   <varray name="positions" >
    <v>       0.50000000       0.10163317       0.12913313 </v>
    <v>       0.50000000       0.74915672       0.90758437 </v>
    <v>       0.00000000       0.25741049       0.87086563 </v>
    <v>       0.00000000       0.60988065       0.09241625 </v>
    <v>       0.50000000       0.36059673       0.99406750 </v>
    <v>       0.00000000       0.99843907       0.00593312 </v>
   </varray>
  </structure>
  <varray name="forces" >
   <v>       0.00000000       0.00602156       0.01538222 </v>
   <v>      -0.00000001       0.00416213      -0.00323958 </v>
   <v>      -0.00000000      -0.00632727      -0.01504888 </v>
   <v>       0.00000000      -0.00413072       0.00329324 </v>
   <v>       0.00000000      -0.01448334       0.00863946 </v>
   <v>       0.00000000       0.01475765      -0.00902646 </v>
  </varray>
  <varray name="stress" >
   <v>       0.93127795      -0.00000005      -0.00000001 </v>
   <v>      -0.00000006      -0.00534441       0.07875443 </v>
   <v>      -0.00000013       0.07875440      -0.19457537 </v>
  </varray>
  <energy>
   <i name="e_fr_energy">    -36.43359096 </i>
   <i name="e_wo_entrp">    -36.43335037 </i>
   <i name="e_0_energy">     -0.00048119 </i>
  </energy>
  <time name="totalsc"> 1178.96 1181.10</time>
  <eigenvalues>
   <array>
    <dimension dim="1">band</dimension>
    <dimension dim="2">kpoint</dimension>
    <dimension dim="3">spin</dimension>
    <field>eigene</field>
    <field>occ</field>
    <set>
     <set comment="spin 1">
      <set comment="kpoint 1">
       <r>  -12.3947    1.0000 </r>
       <r>  -12.3947    1.0000 </r>
       <r>  -11.4961    1.0000 </r>
       <r>  -11.4961    1.0000 </r>
       <r>  -10.6856    1.0000 </r>
       <r>  -10.6856    1.0000 </r>
       <r>  -10.4212    1.0000 </r>
       <r>  -10.4212    1.0000 </r>
       <r>   -5.2073    1.0000 </r>
       <r>   -5.2073    1.0000 </r>
       <r>   -4.5319    1.0000 </r>
       <r>   -4.5319    1.0000 </r>
       <r>   -4.2845    1.0000 </r>
       <r>   -4.2845    1.0000 </r>
       <r>   -3.5136    1.0000 </r>
       <r>   -3.5136    1.0000 </r>
       <r>   -2.3917    1.0000 </r>
       <r>   -2.3917    1.0000 </r>
       <r>   -1.9858    1.0000 </r>
       <r>   -1.9858    1.0000 </r>
       <r>   -1.9117    1.0000 </r>
       <r>   -1.9117    1.0000 </r>
       <r>   -1.5891    1.0000 </r>
       <r>   -1.5891    1.0000 </r>
       <r>   -1.2857    1.0000 </r>
       <r>   -1.2857    1.0000 </r>
       <r>   -0.9579    1.0000 </r>
       <r>   -0.9579    1.0000 </r>
       <r>   -0.6079    1.0000 </r>
       <r>   -0.6079    1.0000 </r>
       <r>   -0.1326    1.0000 </r>
       <r>   -0.1326    1.0000 </r>
       <r>    0.0735    1.0000 </r>
       <r>    0.0735    1.0000 </r>
       <r>    0.6454    0.0000 </r>
       <r>    0.6454    0.0000 </r>
       <r>    0.9965    0.0000 </r>
       <r>    0.9965    0.0000 </r>
       <r>    1.5872    0.0000 </r>
       <r>    1.5872    0.0000 </r>
       <r>    2.0505    0.0000 </r>
       <r>    2.0505    0.0000 </r>
       <r>    2.4366    0.0000 </r>
       <r>    2.4366    0.0000 </r>
       <r>    2.7874    0.0000 </r>
       <r>    2.7874    0.0000 </r>
       <r>    3.4423    0.0000 </r>
       <r>    3.4423    0.0000 </r>
       <r>    3.7271    0.0000 </r>
       <r>    3.7271    0.0000 </r>
       <r>    3.9135    0.0000 </r>
       <r>    3.9135    0.0000 </r>
      </set>
      <set comment="kpoint 2">
       <r>  -12.3256    1.0000 </r>
       <r>  -12.3256    1.0000 </r>
       <r>  -11.4492    1.0000 </r>
       <r>  -11.4492    1.0000 </r>
       <r>  -10.6498    1.0000 </r>
       <r>  -10.6498    1.0000 </r>
       <r>  -10.3752    1.0000 </r>
       <r>  -10.3752    1.0000 </r>
       <r>   -5.1361    1.0000 </r>
       <r>   -5.1361    1.0000 </r>
       <r>   -4.4542    1.0000 </r>
       <r>   -4.4542    1.0000 </r>
       <r>   -4.2561    1.0000 </r>
       <r>   -4.2561    1.0000 </r>
       <r>   -3.4832    1.0000 </r>
       <r>   -3.4832    1.0000 </r>
       <r>   -2.4305    1.0000 </r>
       <r>   -2.4305    1.0000 </r>
       <r>   -2.1354    1.0000 </r>
       <r>   -2.1354    1.0000 </r>
       <r>   -2.0201    1.0000 </r>
       <r>   -2.0201    1.0000 </r>
       <r>   -1.6320    1.0000 </r>
       <r>   -1.6319    1.0000 </r>
       <r>   -1.2862    1.0000 </r>
       <r>   -1.2862    1.0000 </r>
       <r>   -0.9253    1.0000 </r>
       <r>   -0.9253    1.0000 </r>
       <r>   -0.6434    1.0000 </r>
       <r>   -0.6434    1.0000 </r>
       <r>   -0.3149    1.0000 </r>
       <r>   -0.3149    1.0000 </r>
       <r>    0.0732    1.0000 </r>
       <r>    0.0732    1.0000 </r>
       <r>    0.4952    0.5246 </r>
       <r>    0.4952    0.5243 </r>
       <r>    0.6918    0.0000 </r>
       <r>    0.6918    0.0000 </r>
       <r>    1.7290    0.0000 </r>
       <r>    1.7290    0.0000 </r>
       <r>    2.1464    0.0000 </r>
       <r>    2.1464    0.0000 </r>
       <r>    2.4019    0.0000 </r>
       <r>    2.4019    0.0000 </r>
       <r>    2.5765    0.0000 </r>
       <r>    2.5765    0.0000 </r>
       <r>    3.1683    0.0000 </r>
       <r>    3.1683    0.0000 </r>
       <r>    3.3724    0.0000 </r>
       <r>    3.3725    0.0000 </r>
       <r>    3.7644    0.0000 </r>
       <r>    3.7645    0.0000 </r>
      </set>
      <set comment="kpoint 3">
       <r>  -12.1891    1.0000 </r>
       <r>  -12.1891    1.0000 </r>
       <r>  -11.3577    1.0000 </r>
       <r>  -11.3577    1.0000 </r>
       <r>  -10.5815    1.0000 </r>
       <r>  -10.5815    1.0000 </r>
       <r>  -10.2879    1.0000 </r>
       <r>  -10.2879    1.0000 </r>
       <r>   -4.9999    1.0000 </r>
       <r>   -4.9999    1.0000 </r>
       <r>   -4.3211    1.0000 </r>
       <r>   -4.3211    1.0000 </r>
       <r>   -4.1934    1.0000 </r>
       <r>   -4.1934    1.0000 </r>
       <r>   -3.4349    1.0000 </r>
       <r>   -3.4349    1.0000 </r>
       <r>   -2.5316    1.0000 </r>
       <r>   -2.5316    1.0000 </r>
       <r>   -2.3875    1.0000 </r>
       <r>   -2.3875    1.0000 </r>
       <r>   -2.1261    1.0000 </r>
       <r>   -2.1260    1.0000 </r>
       <r>   -1.8184    1.0000 </r>
       <r>   -1.8184    1.0000 </r>
       <r>   -1.3179    1.0000 </r>
       <r>   -1.3179    1.0000 </r>
       <r>   -1.0221    1.0000 </r>
       <r>   -1.0221    1.0000 </r>
       <r>   -0.7634    1.0000 </r>
       <r>   -0.7634    1.0000 </r>
       <r>   -0.4705    1.0000 </r>
       <r>   -0.4705    1.0000 </r>
       <r>    0.0402    1.0000 </r>
       <r>    0.0402    1.0000 </r>
       <r>    0.2121    1.0000 </r>
       <r>    0.2121    1.0000 </r>
       <r>    0.4462    0.9969 </r>
       <r>    0.4463    0.9969 </r>
       <r>    1.6987    0.0000 </r>
       <r>    1.6988    0.0000 </r>
       <r>    2.2279    0.0000 </r>
       <r>    2.2279    0.0000 </r>
       <r>    2.3709    0.0000 </r>
       <r>    2.3709    0.0000 </r>
       <r>    2.4678    0.0000 </r>
       <r>    2.4678    0.0000 </r>
       <r>    2.6613    0.0000 </r>
       <r>    2.6613    0.0000 </r>
       <r>    3.1361    0.0000 </r>
       <r>    3.1361    0.0000 </r>
       <r>    3.7079    0.0000 </r>
       <r>    3.7079    0.0000 </r>
      </set>
      <set comment="kpoint 4">
       <r>  -11.9890    1.0000 </r>
       <r>  -11.9890    1.0000 </r>
       <r>  -11.2258    1.0000 </r>
       <r>  -11.2258    1.0000 </r>
       <r>  -10.4881    1.0000 </r>
       <r>  -10.4881    1.0000 </r>
       <r>  -10.1700    1.0000 </r>
       <r>  -10.1700    1.0000 </r>
       <r>   -4.8136    1.0000 </r>
       <r>   -4.8136    1.0000 </r>
       <r>   -4.2385    1.0000 </r>
       <r>   -4.2384    1.0000 </r>
       <r>   -4.0247    1.0000 </r>
       <r>   -4.0247    1.0000 </r>
       <r>   -3.3926    1.0000 </r>
       <r>   -3.3926    1.0000 </r>
       <r>   -2.8392    1.0000 </r>
       <r>   -2.8392    1.0000 </r>
       <r>   -2.5393    1.0000 </r>
       <r>   -2.5393    1.0000 </r>
       <r>   -2.3276    1.0000 </r>
       <r>   -2.3276    1.0000 </r>
       <r>   -2.0586    1.0000 </r>
       <r>   -2.0585    1.0000 </r>
       <r>   -1.3677    1.0000 </r>
       <r>   -1.3677    1.0000 </r>
       <r>   -1.2434    1.0000 </r>
       <r>   -1.2434    1.0000 </r>
       <r>   -1.0244    1.0000 </r>
       <r>   -1.0244    1.0000 </r>
       <r>   -0.6384    1.0000 </r>
       <r>   -0.6384    1.0000 </r>
       <r>   -0.2510    1.0000 </r>
       <r>   -0.2510    1.0000 </r>
       <r>    0.1086    1.0000 </r>
       <r>    0.1086    1.0000 </r>
       <r>    0.4304    0.9995 </r>
       <r>    0.4304    0.9995 </r>
       <r>    1.5331    0.0000 </r>
       <r>    1.5332    0.0000 </r>
       <r>    2.1367    0.0000 </r>
       <r>    2.1367    0.0000 </r>
       <r>    2.2838    0.0000 </r>
       <r>    2.2839    0.0000 </r>
       <r>    2.4580    0.0000 </r>
       <r>    2.4580    0.0000 </r>
       <r>    2.5001    0.0000 </r>
       <r>    2.5001    0.0000 </r>
       <r>    3.1454    0.0000 </r>
       <r>    3.1454    0.0000 </r>
       <r>    3.6490    0.0000 </r>
       <r>    3.6490    0.0000 </r>
      </set>
      <set comment="kpoint 5">
       <r>  -11.7317    1.0000 </r>
       <r>  -11.7317    1.0000 </r>
       <r>  -11.0612    1.0000 </r>
       <r>  -11.0612    1.0000 </r>
       <r>  -10.3809    1.0000 </r>
       <r>  -10.3809    1.0000 </r>
       <r>  -10.0399    1.0000 </r>
       <r>  -10.0399    1.0000 </r>
       <r>   -4.6090    1.0000 </r>
       <r>   -4.6090    1.0000 </r>
       <r>   -4.2363    1.0000 </r>
       <r>   -4.2363    1.0000 </r>
       <r>   -3.7767    1.0000 </r>
       <r>   -3.7767    1.0000 </r>
       <r>   -3.4239    1.0000 </r>
       <r>   -3.4239    1.0000 </r>
       <r>   -3.2754    1.0000 </r>
       <r>   -3.2753    1.0000 </r>
       <r>   -2.6547    1.0000 </r>
       <r>   -2.6546    1.0000 </r>
       <r>   -2.4591    1.0000 </r>
       <r>   -2.4591    1.0000 </r>
       <r>   -2.2991    1.0000 </r>
       <r>   -2.2991    1.0000 </r>
       <r>   -1.7104    1.0000 </r>
       <r>   -1.7104    1.0000 </r>
       <r>   -1.3972    1.0000 </r>
       <r>   -1.3972    1.0000 </r>
       <r>   -1.2733    1.0000 </r>
       <r>   -1.2733    1.0000 </r>
       <r>   -0.9054    1.0000 </r>
       <r>   -0.9054    1.0000 </r>
       <r>   -0.4641    1.0000 </r>
       <r>   -0.4640    1.0000 </r>
       <r>    0.0415    1.0000 </r>
       <r>    0.0415    1.0000 </r>
       <r>    0.5736    0.0001 </r>
       <r>    0.5736    0.0001 </r>
       <r>    1.4240    0.0000 </r>
       <r>    1.4240    0.0000 </r>
       <r>    1.8894    0.0000 </r>
       <r>    1.8894    0.0000 </r>
       <r>    2.2995    0.0000 </r>
       <r>    2.2995    0.0000 </r>
       <r>    2.4286    0.0000 </r>
       <r>    2.4286    0.0000 </r>
       <r>    2.5810    0.0000 </r>
       <r>    2.5810    0.0000 </r>
       <r>    3.2932    0.0000 </r>
       <r>    3.2932    0.0000 </r>
       <r>    3.5993    0.0000 </r>
       <r>    3.5993    0.0000 </r>
      </set>
      <set comment="kpoint 6">
       <r>  -11.4273    1.0000 </r>
       <r>  -11.4273    1.0000 </r>
       <r>  -10.8750    1.0000 </r>
       <r>  -10.8750    1.0000 </r>
       <r>  -10.2760    1.0000 </r>
       <r>  -10.2760    1.0000 </r>
       <r>   -9.9266    1.0000 </r>
       <r>   -9.9266    1.0000 </r>
       <r>   -4.4618    1.0000 </r>
       <r>   -4.4618    1.0000 </r>
       <r>   -4.2677    1.0000 </r>
       <r>   -4.2677    1.0000 </r>
       <r>   -3.9321    1.0000 </r>
       <r>   -3.9321    1.0000 </r>
       <r>   -3.4592    1.0000 </r>
       <r>   -3.4592    1.0000 </r>
       <r>   -3.2894    1.0000 </r>
       <r>   -3.2894    1.0000 </r>
       <r>   -2.8283    1.0000 </r>
       <r>   -2.8283    1.0000 </r>
       <r>   -2.5904    1.0000 </r>
       <r>   -2.5904    1.0000 </r>
       <r>   -2.5061    1.0000 </r>
       <r>   -2.5061    1.0000 </r>
       <r>   -2.1824    1.0000 </r>
       <r>   -2.1824    1.0000 </r>
       <r>   -1.4901    1.0000 </r>
       <r>   -1.4901    1.0000 </r>
       <r>   -1.3770    1.0000 </r>
       <r>   -1.3770    1.0000 </r>
       <r>   -1.1371    1.0000 </r>
       <r>   -1.1371    1.0000 </r>
       <r>   -0.6097    1.0000 </r>
       <r>   -0.6097    1.0000 </r>
       <r>   -0.0966    1.0000 </r>
       <r>   -0.0966    1.0000 </r>
       <r>    0.8084    0.0000 </r>
       <r>    0.8084    0.0000 </r>
       <r>    1.3930    0.0000 </r>
       <r>    1.3930    0.0000 </r>
       <r>    1.7964    0.0000 </r>
       <r>    1.7964    0.0000 </r>
       <r>    2.3129    0.0000 </r>
       <r>    2.3129    0.0000 </r>
       <r>    2.4176    0.0000 </r>
       <r>    2.4176    0.0000 </r>
       <r>    2.5348    0.0000 </r>
       <r>    2.5348    0.0000 </r>
       <r>    3.4658    0.0000 </r>
       <r>    3.4658    0.0000 </r>
       <r>    3.6486    0.0000 </r>
       <r>    3.6486    0.0000 </r>
      </set>
      <set comment="kpoint 7">
       <r>  -11.0924    1.0000 </r>
       <r>  -11.0924    1.0000 </r>
       <r>  -10.6836    1.0000 </r>
       <r>  -10.6836    1.0000 </r>
       <r>  -10.1926    1.0000 </r>
       <r>  -10.1926    1.0000 </r>
       <r>   -9.8685    1.0000 </r>
       <r>   -9.8685    1.0000 </r>
       <r>   -4.4898    1.0000 </r>
       <r>   -4.4897    1.0000 </r>
       <r>   -4.3521    1.0000 </r>
       <r>   -4.3521    1.0000 </r>
       <r>   -4.2100    1.0000 </r>
       <r>   -4.2100    1.0000 </r>
       <r>   -3.4090    1.0000 </r>
       <r>   -3.4090    1.0000 </r>
       <r>   -3.2639    1.0000 </r>
       <r>   -3.2639    1.0000 </r>
       <r>   -3.0176    1.0000 </r>
       <r>   -3.0176    1.0000 </r>
       <r>   -2.8072    1.0000 </r>
       <r>   -2.8072    1.0000 </r>
       <r>   -2.7016    1.0000 </r>
       <r>   -2.7016    1.0000 </r>
       <r>   -2.1441    1.0000 </r>
       <r>   -2.1441    1.0000 </r>
       <r>   -1.6429    1.0000 </r>
       <r>   -1.6429    1.0000 </r>
       <r>   -1.4214    1.0000 </r>
       <r>   -1.4214    1.0000 </r>
       <r>   -1.2399    1.0000 </r>
       <r>   -1.2398    1.0000 </r>
       <r>   -0.7636    1.0000 </r>
       <r>   -0.7635    1.0000 </r>
       <r>   -0.3066    1.0000 </r>
       <r>   -0.3066    1.0000 </r>
       <r>    1.0808    0.0000 </r>
       <r>    1.0808    0.0000 </r>
       <r>    1.4389    0.0000 </r>
       <r>    1.4389    0.0000 </r>
       <r>    1.8235    0.0000 </r>
       <r>    1.8235    0.0000 </r>
       <r>    2.1513    0.0000 </r>
       <r>    2.1513    0.0000 </r>
       <r>    2.3453    0.0000 </r>
       <r>    2.3453    0.0000 </r>
       <r>    2.5511    0.0000 </r>
       <r>    2.5511    0.0000 </r>
       <r>    3.6356    0.0000 </r>
       <r>    3.6356    0.0000 </r>
       <r>    3.7842    0.0000 </r>
       <r>    3.7843    0.0000 </r>
      </set>
      <set comment="kpoint 8">
       <r>  -10.7548    1.0000 </r>
       <r>  -10.7548    1.0000 </r>
       <r>  -10.5111    1.0000 </r>
       <r>  -10.5111    1.0000 </r>
       <r>  -10.1467    1.0000 </r>
       <r>  -10.1467    1.0000 </r>
       <r>   -9.9023    1.0000 </r>
       <r>   -9.9023    1.0000 </r>
       <r>   -4.6251    1.0000 </r>
       <r>   -4.6251    1.0000 </r>
       <r>   -4.4635    1.0000 </r>
       <r>   -4.4635    1.0000 </r>
       <r>   -4.2649    1.0000 </r>
       <r>   -4.2649    1.0000 </r>
       <r>   -3.8239    1.0000 </r>
       <r>   -3.8239    1.0000 </r>
       <r>   -3.3207    1.0000 </r>
       <r>   -3.3207    1.0000 </r>
       <r>   -3.1343    1.0000 </r>
       <r>   -3.1343    1.0000 </r>
       <r>   -2.7133    1.0000 </r>
       <r>   -2.7133    1.0000 </r>
       <r>   -2.5513    1.0000 </r>
       <r>   -2.5513    1.0000 </r>
       <r>   -2.0284    1.0000 </r>
       <r>   -2.0284    1.0000 </r>
       <r>   -1.8118    1.0000 </r>
       <r>   -1.8118    1.0000 </r>
       <r>   -1.4349    1.0000 </r>
       <r>   -1.4349    1.0000 </r>
       <r>   -1.2400    1.0000 </r>
       <r>   -1.2400    1.0000 </r>
       <r>   -0.9083    1.0000 </r>
       <r>   -0.9083    1.0000 </r>
       <r>   -0.5729    1.0000 </r>
       <r>   -0.5729    1.0000 </r>
       <r>    1.3389    0.0000 </r>
       <r>    1.3389    0.0000 </r>
       <r>    1.5270    0.0000 </r>
       <r>    1.5270    0.0000 </r>
       <r>    1.8795    0.0000 </r>
       <r>    1.8795    0.0000 </r>
       <r>    1.9775    0.0000 </r>
       <r>    1.9775    0.0000 </r>
       <r>    2.2279    0.0000 </r>
       <r>    2.2279    0.0000 </r>
       <r>    2.5577    0.0000 </r>
       <r>    2.5577    0.0000 </r>
       <r>    3.8084    0.0000 </r>
       <r>    3.8084    0.0000 </r>
       <r>    3.9205    0.0000 </r>
       <r>    3.9205    0.0000 </r>
      </set>
      <set comment="kpoint 9">
       <r>  -10.4759    1.0000 </r>
       <r>  -10.4759    1.0000 </r>
       <r>  -10.4013    1.0000 </r>
       <r>  -10.4013    1.0000 </r>
       <r>  -10.1253    1.0000 </r>
       <r>  -10.1253    1.0000 </r>
       <r>  -10.0266    1.0000 </r>
       <r>  -10.0266    1.0000 </r>
       <r>   -4.6248    1.0000 </r>
       <r>   -4.6248    1.0000 </r>
       <r>   -4.5235    1.0000 </r>
       <r>   -4.5235    1.0000 </r>
       <r>   -4.3079    1.0000 </r>
       <r>   -4.3079    1.0000 </r>
       <r>   -4.1874    1.0000 </r>
       <r>   -4.1874    1.0000 </r>
       <r>   -3.3445    1.0000 </r>
       <r>   -3.3445    1.0000 </r>
       <r>   -3.2797    1.0000 </r>
       <r>   -3.2797    1.0000 </r>
       <r>   -2.4400    1.0000 </r>
       <r>   -2.4400    1.0000 </r>
       <r>   -2.3017    1.0000 </r>
       <r>   -2.3017    1.0000 </r>
       <r>   -2.1182    1.0000 </r>
       <r>   -2.1182    1.0000 </r>
       <r>   -2.0001    1.0000 </r>
       <r>   -2.0001    1.0000 </r>
       <r>   -1.3123    1.0000 </r>
       <r>   -1.3123    1.0000 </r>
       <r>   -1.2094    1.0000 </r>
       <r>   -1.2094    1.0000 </r>
       <r>   -0.9825    1.0000 </r>
       <r>   -0.9825    1.0000 </r>
       <r>   -0.8492    1.0000 </r>
       <r>   -0.8491    1.0000 </r>
       <r>    1.5161    0.0000 </r>
       <r>    1.5162    0.0000 </r>
       <r>    1.5717    0.0000 </r>
       <r>    1.5717    0.0000 </r>
       <r>    1.8699    0.0000 </r>
       <r>    1.8699    0.0000 </r>
       <r>    1.8851    0.0000 </r>
       <r>    1.8851    0.0000 </r>
       <r>    2.2856    0.0000 </r>
       <r>    2.2856    0.0000 </r>
       <r>    2.4439    0.0000 </r>
       <r>    2.4439    0.0000 </r>
       <r>    3.9494    0.0000 </r>
       <r>    3.9495    0.0000 </r>
       <r>    3.9911    0.0000 </r>
       <r>    3.9911    0.0000 </r>
      </set>
      <set comment="kpoint 10">
       <r>  -10.4759    1.0000 </r>
       <r>  -10.4759    1.0000 </r>
       <r>  -10.4013    1.0000 </r>
       <r>  -10.4013    1.0000 </r>
       <r>  -10.1253    1.0000 </r>
       <r>  -10.1253    1.0000 </r>
       <r>  -10.0266    1.0000 </r>
       <r>  -10.0266    1.0000 </r>
       <r>   -4.6248    1.0000 </r>
       <r>   -4.6248    1.0000 </r>
       <r>   -4.5235    1.0000 </r>
       <r>   -4.5235    1.0000 </r>
       <r>   -4.3079    1.0000 </r>
       <r>   -4.3079    1.0000 </r>
       <r>   -4.1874    1.0000 </r>
       <r>   -4.1874    1.0000 </r>
       <r>   -3.3445    1.0000 </r>
       <r>   -3.3445    1.0000 </r>
       <r>   -3.2797    1.0000 </r>
       <r>   -3.2797    1.0000 </r>
       <r>   -2.4400    1.0000 </r>
       <r>   -2.4400    1.0000 </r>
       <r>   -2.3017    1.0000 </r>
       <r>   -2.3017    1.0000 </r>
       <r>   -2.1182    1.0000 </r>
       <r>   -2.1182    1.0000 </r>
       <r>   -2.0001    1.0000 </r>
       <r>   -2.0001    1.0000 </r>
       <r>   -1.3123    1.0000 </r>
       <r>   -1.3123    1.0000 </r>
       <r>   -1.2094    1.0000 </r>
       <r>   -1.2094    1.0000 </r>
       <r>   -0.9825    1.0000 </r>
       <r>   -0.9825    1.0000 </r>
       <r>   -0.8492    1.0000 </r>
       <r>   -0.8491    1.0000 </r>
       <r>    1.5161    0.0000 </r>
       <r>    1.5162    0.0000 </r>
       <r>    1.5717    0.0000 </r>
       <r>    1.5717    0.0000 </r>
       <r>    1.8699    0.0000 </r>
       <r>    1.8699    0.0000 </r>
       <r>    1.8851    0.0000 </r>
       <r>    1.8851    0.0000 </r>
       <r>    2.2856    0.0000 </r>
       <r>    2.2856    0.0000 </r>
       <r>    2.4439    0.0000 </r>
       <r>    2.4439    0.0000 </r>
       <r>    3.9494    0.0000 </r>
       <r>    3.9495    0.0000 </r>
       <r>    3.9911    0.0000 </r>
       <r>    3.9911    0.0000 </r>
      </set>
      <set comment="kpoint 11">
       <r>  -10.7548    1.0000 </r>
       <r>  -10.7548    1.0000 </r>
       <r>  -10.5111    1.0000 </r>
       <r>  -10.5111    1.0000 </r>
       <r>  -10.1467    1.0000 </r>
       <r>  -10.1467    1.0000 </r>
       <r>   -9.9023    1.0000 </r>
       <r>   -9.9023    1.0000 </r>
       <r>   -4.6251    1.0000 </r>
       <r>   -4.6251    1.0000 </r>
       <r>   -4.4635    1.0000 </r>
       <r>   -4.4635    1.0000 </r>
       <r>   -4.2649    1.0000 </r>
       <r>   -4.2649    1.0000 </r>
       <r>   -3.8239    1.0000 </r>
       <r>   -3.8239    1.0000 </r>
       <r>   -3.3207    1.0000 </r>
       <r>   -3.3207    1.0000 </r>
       <r>   -3.1343    1.0000 </r>
       <r>   -3.1343    1.0000 </r>
       <r>   -2.7133    1.0000 </r>
       <r>   -2.7133    1.0000 </r>
       <r>   -2.5513    1.0000 </r>
       <r>   -2.5513    1.0000 </r>
       <r>   -2.0284    1.0000 </r>
       <r>   -2.0284    1.0000 </r>
       <r>   -1.8118    1.0000 </r>
       <r>   -1.8118    1.0000 </r>
       <r>   -1.4349    1.0000 </r>
       <r>   -1.4349    1.0000 </r>
       <r>   -1.2400    1.0000 </r>
       <r>   -1.2400    1.0000 </r>
       <r>   -0.9083    1.0000 </r>
       <r>   -0.9083    1.0000 </r>
       <r>   -0.5729    1.0000 </r>
       <r>   -0.5729    1.0000 </r>
       <r>    1.3389    0.0000 </r>
       <r>    1.3389    0.0000 </r>
       <r>    1.5270    0.0000 </r>
       <r>    1.5270    0.0000 </r>
       <r>    1.8795    0.0000 </r>
       <r>    1.8795    0.0000 </r>
       <r>    1.9775    0.0000 </r>
       <r>    1.9775    0.0000 </r>
       <r>    2.2279    0.0000 </r>
       <r>    2.2279    0.0000 </r>
       <r>    2.5577    0.0000 </r>
       <r>    2.5577    0.0000 </r>
       <r>    3.8084    0.0000 </r>
       <r>    3.8084    0.0000 </r>
       <r>    3.9205    0.0000 </r>
       <r>    3.9205    0.0000 </r>
      </set>
      <set comment="kpoint 12">
       <r>  -11.0924    1.0000 </r>
       <r>  -11.0924    1.0000 </r>
       <r>  -10.6836    1.0000 </r>
       <r>  -10.6836    1.0000 </r>
[...]
       <r>     0.3644     0.0000     0.0000 </r>
       <r>     0.4245     0.0000     0.0000 </r>
       <r>     0.4846     0.0000     0.0000 </r>
       <r>     0.5447     0.0000     0.0000 </r>
       <r>     0.6047     0.0000     0.0000 </r>
       <r>     0.6648     0.0000     0.0000 </r>
       <r>     0.7249     0.0000     0.0000 </r>
       <r>     0.7850     0.0000     0.0000 </r>
       <r>     0.8451     0.0000     0.0000 </r>
       <r>     0.9051     0.0000     0.0000 </r>
       <r>     0.9652     0.0000     0.0000 </r>
       <r>     1.0253     0.0000     0.0000 </r>
       <r>     1.0854     0.0000     0.0000 </r>
       <r>     1.1455     0.0000     0.0000 </r>
       <r>     1.2055     0.0000     0.0000 </r>
       <r>     1.2656     0.0000     0.0000 </r>
       <r>     1.3257     0.0000     0.0000 </r>
       <r>     1.3858     0.0000     0.0000 </r>
       <r>     1.4459     0.0000     0.0000 </r>
       <r>     1.5060     0.0000     0.0000 </r>
       <r>     1.5660     0.0000     0.0000 </r>
       <r>     1.6261     0.0000     0.0000 </r>
       <r>     1.6862     0.0000     0.0000 </r>
       <r>     1.7463     0.0000     0.0000 </r>
       <r>     1.8064     0.0000     0.0000 </r>
       <r>     1.8664     0.0000     0.0000 </r>
       <r>     1.9265     0.0000     0.0000 </r>
       <r>     1.9866     0.0000     0.0000 </r>
       <r>     2.0467     0.0000     0.0000 </r>
       <r>     2.1068     0.0000     0.0000 </r>
       <r>     2.1668     0.0000     0.0000 </r>
       <r>     2.2269     0.0000     0.0000 </r>
       <r>     2.2870     0.0000     0.0000 </r>
       <r>     2.3471     0.0000     0.0000 </r>
       <r>     2.4072     0.0000     0.0000 </r>
       <r>     2.4673     0.0000     0.0000 </r>
       <r>     2.5273     0.0000     0.0000 </r>
       <r>     2.5874     0.0000     0.0000 </r>
       <r>     2.6475     0.0000     0.0000 </r>
       <r>     2.7076     0.0000     0.0000 </r>
       <r>     2.7677     0.0000     0.0000 </r>
       <r>     2.8277     0.0000     0.0000 </r>
       <r>     2.8878     0.0000     0.0000 </r>
       <r>     2.9479     0.0000     0.0000 </r>
       <r>     3.0080     0.0000     0.0000 </r>
       <r>     3.0681     0.0000     0.0000 </r>
       <r>     3.1282     0.0000     0.0000 </r>
       <r>     3.1882     0.0000     0.0000 </r>
       <r>     3.2483     0.0000     0.0000 </r>
       <r>     3.3084     0.0000     0.0000 </r>
       <r>     3.3685     0.0000     0.0000 </r>
       <r>     3.4286     0.0000     0.0000 </r>
       <r>     3.4886     0.0000     0.0000 </r>
       <r>     3.5487     0.0000     0.0000 </r>
       <r>     3.6088     0.0000     0.0000 </r>
       <r>     3.6689     0.0000     0.0000 </r>
       <r>     3.7290     0.0000     0.0000 </r>
       <r>     3.7890     0.0000     0.0000 </r>
       <r>     3.8491     0.0000     0.0000 </r>
       <r>     3.9092     0.0000     0.0000 </r>
       <r>     3.9693     0.0000     0.0000 </r>
       <r>     4.0294     0.0000     0.0000 </r>
       <r>     4.0895     0.0000     0.0000 </r>
       <r>     4.1495     0.0000     0.0000 </r>
       <r>     4.2096     0.0000     0.0000 </r>
       <r>     4.2697     0.0000     0.0000 </r>
       <r>     4.3298     0.0000     0.0000 </r>
       <r>     4.3899     0.0000     0.0000 </r>
       <r>     4.4499     0.0000     0.0000 </r>
       <r>     4.5100     0.0000     0.0000 </r>
       <r>     4.5701     0.0000     0.0000 </r>
       <r>     4.6302     0.0000     0.0000 </r>
       <r>     4.6903     0.0000     0.0000 </r>
       <r>     4.7503     0.0000     0.0000 </r>
       <r>     4.8104     0.0000     0.0000 </r>
      </set>
      <set comment="spin 4">
       <r>   -13.2140     0.0000     0.0000 </r>
       <r>   -13.1539     0.0000     0.0000 </r>
       <r>   -13.0938     0.0000     0.0000 </r>
       <r>   -13.0337     0.0000     0.0000 </r>
       <r>   -12.9736     0.0000     0.0000 </r>
       <r>   -12.9136     0.0000     0.0000 </r>
       <r>   -12.8535     0.0000     0.0000 </r>
       <r>   -12.7934     0.0000     0.0000 </r>
       <r>   -12.7333     0.0000     0.0000 </r>
       <r>   -12.6732     0.0000     0.0000 </r>
       <r>   -12.6132     0.0000     0.0000 </r>
       <r>   -12.5531     0.0000     0.0000 </r>
       <r>   -12.4930     0.0000     0.0000 </r>
       <r>   -12.4329     0.0000     0.0000 </r>
       <r>   -12.3728     0.0000     0.0000 </r>
       <r>   -12.3127     0.0000     0.0000 </r>
       <r>   -12.2527     0.0000     0.0000 </r>
       <r>   -12.1926     0.0000     0.0000 </r>
       <r>   -12.1325     0.0000     0.0000 </r>
       <r>   -12.0724     0.0000     0.0000 </r>
       <r>   -12.0123     0.0000     0.0000 </r>
       <r>   -11.9523     0.0000     0.0000 </r>
       <r>   -11.8922     0.0000     0.0000 </r>
       <r>   -11.8321     0.0000     0.0000 </r>
       <r>   -11.7720     0.0000     0.0000 </r>
       <r>   -11.7119     0.0000     0.0000 </r>
       <r>   -11.6519     0.0000     0.0000 </r>
       <r>   -11.5918     0.0000     0.0000 </r>
       <r>   -11.5317     0.0000     0.0000 </r>
       <r>   -11.4716     0.0000     0.0000 </r>
       <r>   -11.4115     0.0000     0.0000 </r>
       <r>   -11.3514     0.0000     0.0000 </r>
       <r>   -11.2914     0.0000     0.0000 </r>
       <r>   -11.2313     0.0000     0.0000 </r>
       <r>   -11.1712     0.0000     0.0000 </r>
       <r>   -11.1111     0.0000     0.0000 </r>
       <r>   -11.0510     0.0000     0.0000 </r>
       <r>   -10.9910     0.0000     0.0000 </r>
       <r>   -10.9309     0.0000     0.0000 </r>
       <r>   -10.8708     0.0000     0.0000 </r>
       <r>   -10.8107     0.0000     0.0000 </r>
       <r>   -10.7506     0.0000     0.0000 </r>
       <r>   -10.6906     0.0000     0.0000 </r>
       <r>   -10.6305     0.0000     0.0000 </r>
       <r>   -10.5704     0.0000     0.0000 </r>
       <r>   -10.5103     0.0000     0.0000 </r>
       <r>   -10.4502     0.0000     0.0000 </r>
       <r>   -10.3901     0.0000     0.0000 </r>
       <r>   -10.3301     0.0000     0.0000 </r>
       <r>   -10.2700     0.0000     0.0000 </r>
       <r>   -10.2099     0.0000     0.0000 </r>
       <r>   -10.1498     0.0000     0.0000 </r>
       <r>   -10.0897     0.0000     0.0000 </r>
       <r>   -10.0297     0.0000     0.0000 </r>
       <r>    -9.9696     0.0000     0.0000 </r>
       <r>    -9.9095     0.0000     0.0000 </r>
       <r>    -9.8494     0.0000     0.0000 </r>
       <r>    -9.7893     0.0000     0.0000 </r>
       <r>    -9.7293     0.0000     0.0000 </r>
       <r>    -9.6692     0.0000     0.0000 </r>
       <r>    -9.6091     0.0000     0.0000 </r>
       <r>    -9.5490     0.0000     0.0000 </r>
       <r>    -9.4889     0.0000     0.0000 </r>
       <r>    -9.4288     0.0000     0.0000 </r>
       <r>    -9.3688     0.0000     0.0000 </r>
       <r>    -9.3087     0.0000     0.0000 </r>
       <r>    -9.2486     0.0000     0.0000 </r>
       <r>    -9.1885     0.0000     0.0000 </r>
       <r>    -9.1284     0.0000     0.0000 </r>
       <r>    -9.0684     0.0000     0.0000 </r>
       <r>    -9.0083     0.0000     0.0000 </r>
       <r>    -8.9482     0.0000     0.0000 </r>
       <r>    -8.8881     0.0000     0.0000 </r>
       <r>    -8.8280     0.0000     0.0000 </r>
       <r>    -8.7680     0.0000     0.0000 </r>
       <r>    -8.7079     0.0000     0.0000 </r>
       <r>    -8.6478     0.0000     0.0000 </r>
       <r>    -8.5877     0.0000     0.0000 </r>
       <r>    -8.5276     0.0000     0.0000 </r>
       <r>    -8.4675     0.0000     0.0000 </r>
       <r>    -8.4075     0.0000     0.0000 </r>
       <r>    -8.3474     0.0000     0.0000 </r>
       <r>    -8.2873     0.0000     0.0000 </r>
       <r>    -8.2272     0.0000     0.0000 </r>
       <r>    -8.1671     0.0000     0.0000 </r>
       <r>    -8.1071     0.0000     0.0000 </r>
       <r>    -8.0470     0.0000     0.0000 </r>
       <r>    -7.9869     0.0000     0.0000 </r>
       <r>    -7.9268     0.0000     0.0000 </r>
       <r>    -7.8667     0.0000     0.0000 </r>
       <r>    -7.8067     0.0000     0.0000 </r>
       <r>    -7.7466     0.0000     0.0000 </r>
       <r>    -7.6865     0.0000     0.0000 </r>
       <r>    -7.6264     0.0000     0.0000 </r>
       <r>    -7.5663     0.0000     0.0000 </r>
       <r>    -7.5062     0.0000     0.0000 </r>
       <r>    -7.4462     0.0000     0.0000 </r>
       <r>    -7.3861     0.0000     0.0000 </r>
       <r>    -7.3260     0.0000     0.0000 </r>
       <r>    -7.2659     0.0000     0.0000 </r>
       <r>    -7.2058     0.0000     0.0000 </r>
       <r>    -7.1458     0.0000     0.0000 </r>
       <r>    -7.0857     0.0000     0.0000 </r>
       <r>    -7.0256     0.0000     0.0000 </r>
       <r>    -6.9655     0.0000     0.0000 </r>
       <r>    -6.9054     0.0000     0.0000 </r>
       <r>    -6.8453     0.0000     0.0000 </r>
       <r>    -6.7853     0.0000     0.0000 </r>
       <r>    -6.7252     0.0000     0.0000 </r>
       <r>    -6.6651     0.0000     0.0000 </r>
       <r>    -6.6050     0.0000     0.0000 </r>
       <r>    -6.5449     0.0000     0.0000 </r>
       <r>    -6.4849     0.0000     0.0000 </r>
       <r>    -6.4248     0.0000     0.0000 </r>
       <r>    -6.3647     0.0000     0.0000 </r>
       <r>    -6.3046     0.0000     0.0000 </r>
       <r>    -6.2445     0.0000     0.0000 </r>
       <r>    -6.1845     0.0000     0.0000 </r>
       <r>    -6.1244     0.0000     0.0000 </r>
       <r>    -6.0643     0.0000     0.0000 </r>
       <r>    -6.0042     0.0000     0.0000 </r>
       <r>    -5.9441     0.0000     0.0000 </r>
       <r>    -5.8840     0.0000     0.0000 </r>
       <r>    -5.8240     0.0000     0.0000 </r>
       <r>    -5.7639     0.0000     0.0000 </r>
       <r>    -5.7038     0.0000     0.0000 </r>
       <r>    -5.6437     0.0000     0.0000 </r>
       <r>    -5.5836     0.0000     0.0000 </r>
       <r>    -5.5236     0.0000     0.0000 </r>
       <r>    -5.4635     0.0000     0.0000 </r>
       <r>    -5.4034     0.0000     0.0000 </r>
       <r>    -5.3433     0.0000     0.0000 </r>
       <r>    -5.2832     0.0000     0.0000 </r>
       <r>    -5.2232     0.0000     0.0000 </r>
       <r>    -5.1631     0.0000     0.0000 </r>
       <r>    -5.1030     0.0000     0.0000 </r>
       <r>    -5.0429     0.0000     0.0000 </r>
       <r>    -4.9828     0.0000     0.0000 </r>
       <r>    -4.9227     0.0000     0.0000 </r>
       <r>    -4.8627     0.0000     0.0000 </r>
       <r>    -4.8026     0.0000     0.0000 </r>
       <r>    -4.7425     0.0000     0.0000 </r>
       <r>    -4.6824     0.0000     0.0000 </r>
       <r>    -4.6223     0.0000     0.0000 </r>
       <r>    -4.5623     0.0000     0.0000 </r>
       <r>    -4.5022     0.0000     0.0000 </r>
       <r>    -4.4421     0.0000     0.0000 </r>
       <r>    -4.3820     0.0000     0.0000 </r>
       <r>    -4.3219     0.0000     0.0000 </r>
       <r>    -4.2619     0.0000     0.0000 </r>
       <r>    -4.2018     0.0000     0.0000 </r>
       <r>    -4.1417     0.0000     0.0000 </r>
       <r>    -4.0816     0.0000     0.0000 </r>
       <r>    -4.0215     0.0000     0.0000 </r>
       <r>    -3.9614     0.0000     0.0000 </r>
       <r>    -3.9014     0.0000     0.0000 </r>
       <r>    -3.8413     0.0000     0.0000 </r>
       <r>    -3.7812     0.0000     0.0000 </r>
       <r>    -3.7211     0.0000     0.0000 </r>
       <r>    -3.6610     0.0000     0.0000 </r>
       <r>    -3.6010     0.0000     0.0000 </r>
       <r>    -3.5409     0.0000     0.0000 </r>
       <r>    -3.4808     0.0000     0.0000 </r>
       <r>    -3.4207     0.0000     0.0000 </r>
       <r>    -3.3606     0.0000     0.0000 </r>
       <r>    -3.3006     0.0000     0.0000 </r>
       <r>    -3.2405     0.0000     0.0000 </r>
       <r>    -3.1804     0.0000     0.0000 </r>
       <r>    -3.1203     0.0000     0.0000 </r>
       <r>    -3.0602     0.0000     0.0000 </r>
       <r>    -3.0001     0.0000     0.0000 </r>
       <r>    -2.9401     0.0000     0.0000 </r>
       <r>    -2.8800     0.0000     0.0000 </r>
       <r>    -2.8199     0.0000     0.0000 </r>
       <r>    -2.7598     0.0000     0.0000 </r>
       <r>    -2.6997     0.0000     0.0000 </r>
       <r>    -2.6397     0.0000     0.0000 </r>
       <r>    -2.5796     0.0000     0.0000 </r>
       <r>    -2.5195     0.0000     0.0000 </r>
       <r>    -2.4594     0.0000     0.0000 </r>
       <r>    -2.3993     0.0000     0.0000 </r>
       <r>    -2.3392     0.0000     0.0000 </r>
       <r>    -2.2792     0.0000     0.0000 </r>
       <r>    -2.2191     0.0000     0.0000 </r>
       <r>    -2.1590     0.0000     0.0000 </r>
       <r>    -2.0989     0.0000     0.0000 </r>
       <r>    -2.0388     0.0000     0.0000 </r>
       <r>    -1.9788     0.0000     0.0000 </r>
       <r>    -1.9187     0.0000     0.0000 </r>
       <r>    -1.8586     0.0000     0.0000 </r>
       <r>    -1.7985     0.0000     0.0000 </r>
       <r>    -1.7384     0.0000     0.0000 </r>
       <r>    -1.6784     0.0000     0.0000 </r>
       <r>    -1.6183     0.0000     0.0000 </r>
       <r>    -1.5582     0.0000     0.0000 </r>
       <r>    -1.4981     0.0000     0.0000 </r>
       <r>    -1.4380     0.0000     0.0000 </r>
       <r>    -1.3779     0.0000     0.0000 </r>
       <r>    -1.3179     0.0000     0.0000 </r>
       <r>    -1.2578     0.0000     0.0000 </r>
       <r>    -1.1977     0.0000     0.0000 </r>
       <r>    -1.1376     0.0000     0.0000 </r>
       <r>    -1.0775     0.0000     0.0000 </r>
       <r>    -1.0175     0.0000     0.0000 </r>
       <r>    -0.9574     0.0000     0.0000 </r>
       <r>    -0.8973     0.0000     0.0000 </r>
       <r>    -0.8372     0.0000     0.0000 </r>
       <r>    -0.7771     0.0000     0.0000 </r>
       <r>    -0.7171     0.0000     0.0000 </r>
       <r>    -0.6570     0.0000     0.0000 </r>
       <r>    -0.5969     0.0000     0.0000 </r>
       <r>    -0.5368     0.0000     0.0000 </r>
       <r>    -0.4767     0.0000     0.0000 </r>
       <r>    -0.4166     0.0000     0.0000 </r>
       <r>    -0.3566     0.0000     0.0000 </r>
       <r>    -0.2965     0.0000     0.0000 </r>
       <r>    -0.2364     0.0000     0.0000 </r>
       <r>    -0.1763     0.0000     0.0000 </r>
       <r>    -0.1162     0.0000     0.0000 </r>
       <r>    -0.0562     0.0000     0.0000 </r>
       <r>     0.0039     0.0000     0.0000 </r>
       <r>     0.0640     0.0000     0.0000 </r>
       <r>     0.1241     0.0000     0.0000 </r>
       <r>     0.1842     0.0000     0.0000 </r>
       <r>     0.2442     0.0000     0.0000 </r>
       <r>     0.3043     0.0000     0.0000 </r>
       <r>     0.3644     0.0000     0.0000 </r>
       <r>     0.4245     0.0000     0.0000 </r>
       <r>     0.4846     0.0000     0.0000 </r>
       <r>     0.5447     0.0000     0.0000 </r>
       <r>     0.6047     0.0000     0.0000 </r>
       <r>     0.6648     0.0000     0.0000 </r>
       <r>     0.7249     0.0000     0.0000 </r>
       <r>     0.7850     0.0000     0.0000 </r>
       <r>     0.8451     0.0000     0.0000 </r>
       <r>     0.9051     0.0000     0.0000 </r>
       <r>     0.9652     0.0000     0.0000 </r>
       <r>     1.0253     0.0000     0.0000 </r>
       <r>     1.0854     0.0000     0.0000 </r>
       <r>     1.1455     0.0000     0.0000 </r>
       <r>     1.2055     0.0000     0.0000 </r>
       <r>     1.2656     0.0000     0.0000 </r>
       <r>     1.3257     0.0000     0.0000 </r>
       <r>     1.3858     0.0000     0.0000 </r>
       <r>     1.4459     0.0000     0.0000 </r>
       <r>     1.5060     0.0000     0.0000 </r>
       <r>     1.5660     0.0000     0.0000 </r>
       <r>     1.6261     0.0000     0.0000 </r>
       <r>     1.6862     0.0000     0.0000 </r>
       <r>     1.7463     0.0000     0.0000 </r>
       <r>     1.8064     0.0000     0.0000 </r>
       <r>     1.8664     0.0000     0.0000 </r>
       <r>     1.9265     0.0000     0.0000 </r>
       <r>     1.9866     0.0000     0.0000 </r>
       <r>     2.0467     0.0000     0.0000 </r>
       <r>     2.1068     0.0000     0.0000 </r>
       <r>     2.1668     0.0000     0.0000 </r>
       <r>     2.2269     0.0000     0.0000 </r>
       <r>     2.2870     0.0000     0.0000 </r>
       <r>     2.3471     0.0000     0.0000 </r>
       <r>     2.4072     0.0000     0.0000 </r>
       <r>     2.4673     0.0000     0.0000 </r>
       <r>     2.5273     0.0000     0.0000 </r>
       <r>     2.5874     0.0000     0.0000 </r>
       <r>     2.6475     0.0000     0.0000 </r>
       <r>     2.7076     0.0000     0.0000 </r>
       <r>     2.7677     0.0000     0.0000 </r>
       <r>     2.8277     0.0000     0.0000 </r>
       <r>     2.8878     0.0000     0.0000 </r>
       <r>     2.9479     0.0000     0.0000 </r>
       <r>     3.0080     0.0000     0.0000 </r>
       <r>     3.0681     0.0000     0.0000 </r>
       <r>     3.1282     0.0000     0.0000 </r>
       <r>     3.1882     0.0000     0.0000 </r>
       <r>     3.2483     0.0000     0.0000 </r>
       <r>     3.3084     0.0000     0.0000 </r>
       <r>     3.3685     0.0000     0.0000 </r>
       <r>     3.4286     0.0000     0.0000 </r>
       <r>     3.4886     0.0000     0.0000 </r>
       <r>     3.5487     0.0000     0.0000 </r>
       <r>     3.6088     0.0000     0.0000 </r>
       <r>     3.6689     0.0000     0.0000 </r>
       <r>     3.7290     0.0000     0.0000 </r>
       <r>     3.7890     0.0000     0.0000 </r>
       <r>     3.8491     0.0000     0.0000 </r>
       <r>     3.9092     0.0000     0.0000 </r>
       <r>     3.9693     0.0000     0.0000 </r>
       <r>     4.0294     0.0000     0.0000 </r>
       <r>     4.0895     0.0000     0.0000 </r>
       <r>     4.1495     0.0000     0.0000 </r>
       <r>     4.2096     0.0000     0.0000 </r>
       <r>     4.2697     0.0000     0.0000 </r>
       <r>     4.3298     0.0000     0.0000 </r>
       <r>     4.3899     0.0000     0.0000 </r>
       <r>     4.4499     0.0000     0.0000 </r>
       <r>     4.5100     0.0000     0.0000 </r>
       <r>     4.5701     0.0000     0.0000 </r>
       <r>     4.6302     0.0000     0.0000 </r>
       <r>     4.6903     0.0000     0.0000 </r>
       <r>     4.7503     0.0000     0.0000 </r>
       <r>     4.8104     0.0000     0.0000 </r>
      </set>
     </set>
    </array>
   </total>
  </dos>
 </calculation>
 <structure name="finalpos" >
  <crystal>
   <varray name="basis" >
    <v>       3.45200000       0.00000000       0.00000000 </v>
    <v>       0.00000000       6.36800000       0.00000000 </v>
    <v>       0.00000000       0.00000000      16.00000000 </v>
   </varray>
   <i name="volume">    351.71737600 </i>
   <varray name="rec_basis" >
    <v>       0.28968714       0.00000000       0.00000000 </v>
    <v>       0.00000000       0.15703518       0.00000000 </v>
    <v>       0.00000000       0.00000000       0.06250000 </v>
   </varray>
  </crystal>
  <varray name="positions" >
   <v>       0.50000000       0.10163317       0.12913313 </v>
   <v>       0.50000000       0.74915672       0.90758437 </v>
   <v>       0.00000000       0.25741049       0.87086563 </v>
   <v>       0.00000000       0.60988065       0.09241625 </v>
   <v>       0.50000000       0.36059673       0.99406750 </v>
   <v>       0.00000000       0.99843907       0.00593312 </v>
  </varray>
  <varray name="velocities" >
   <v>       0.00000000       0.00000000       0.00000000 </v>
   <v>       0.00000000       0.00000000       0.00000000 </v>
   <v>       0.00000000       0.00000000       0.00000000 </v>
   <v>       0.00000000       0.00000000       0.00000000 </v>
   <v>       0.00000000       0.00000000       0.00000000 </v>
   <v>       0.00000000       0.00000000       0.00000000 </v>
  </varray>
 </structure>
</modeling>
