  24
   1   1
     8.375055348000000    -0.000142912000000    -0.000142912000000
    -0.000142912000000     8.521278568000000    -0.029270164000000
    -0.000142912000000    -0.029270164000000    10.861531471999999
   1   2
    -1.675826944000000    -0.000003828000000    -0.000001276000000
     0.000003828000000     0.202396568000000    -0.054603868000000
     0.000001276000000    -0.054607696000000     0.453301552000000
   1   3
    -0.037317896000000     0.000007656000000     0.000007656000000
     0.000011484000000    -0.007499052000000     0.010075296000000
     0.000011484000000     0.010057432000000     0.037892096000000
   1   4
     0.024616592000000     0.000002552000000    -0.000001276000000
    -0.000001276000000    -0.057233704000000     0.025756060000000
    -0.000007656000000     0.025757336000000     0.077041052000000
   1   5
     0.347907780000000     0.000006380000000     0.000001276000000
     0.000008932000000     0.326698108000000     0.006318752000000
     0.000002552000000    -0.006331512000000    -1.212043052000000
   1   6
    -0.237329620000000    -0.000015312000000     0.000010208000000
     0.000001276000000     0.277748196000000    -0.230689316000000
     0.000001276000000     0.230653588000000    -0.234294016000000
   1   7
    -0.030026832000000     0.000005104000000    -0.000006380000000
     0.000005104000000    -0.060270584000000     0.000475948000000
     0.000003828000000    -0.000505296000000    -0.020301160000000
   1   8
     0.058047792000000     0.000003828000000     0.000010208000000
    -0.000001276000000    -0.025582524000000    -0.005901500000000
    -0.000001276000000     0.005896396000000    -0.024395844000000
   1   9
    -0.122909424000000     0.416154640000000     0.041529972000000
     0.403378052000000    -0.585852432000000    -0.035004508000000
    -0.015206092000000     0.057400860000000     0.245222956000000
   1  10
    -0.122919632000000    -0.416134224000000    -0.041531248000000
    -0.403356360000000    -0.585871572000000    -0.034996852000000
     0.015186952000000     0.057431484000000     0.245205092000000
   1  11
    -0.122931116000000    -0.403367844000000     0.015212472000000
    -0.416115084000000    -0.585889436000000     0.057405964000000
    -0.041529972000000    -0.035001956000000     0.245211472000000
   1  12
    -0.122942600000000     0.403380604000000    -0.015204816000000
     0.416126568000000    -0.585902196000000     0.057408516000000
     0.041529972000000    -0.034990472000000     0.245198712000000
   1  13
     0.065197220000000     0.178941136000000     0.199577884000000
     0.021731556000000    -0.039224240000000    -0.068473988000000
    -0.021843844000000    -0.183385444000000    -0.126913512000000
   1  14
     0.065175528000000    -0.178902856000000    -0.199561296000000
    -0.021723900000000    -0.039229344000000    -0.068479092000000
     0.021854052000000    -0.183407136000000    -0.126928824000000
   1  15
     0.065192116000000    -0.021731556000000    -0.021857880000000
    -0.178936032000000    -0.039233172000000     0.183414792000000
     0.199616164000000     0.068457400000000    -0.126917340000000
   1  16
     0.065178080000000     0.021754524000000     0.021860432000000
     0.178955172000000    -0.039267624000000     0.183418620000000
    -0.199609784000000     0.068426776000000    -0.126941584000000
   1  17
    -2.967956131479948     1.088060865131974     2.148547202347069
     1.284285684630029    -1.718918088927120    -1.240036102133451
     2.466089101634147    -1.367457373821896    -3.261527155744188
   1  18
    -2.967989324475595    -1.088016607804445    -2.148489667821281
    -1.284237001569748    -1.718967878420590    -1.240015079902874
    -2.466014970610536    -1.367433032291755    -3.261552603707517
   1  19
    -0.022915337761274    -0.065984356046020     0.028957569402157
     0.065126870325147     0.059323628252921     0.005158191523493
     0.007585705938453    -0.049615783459457    -0.055020709583924
   1  20
    -0.022966233687932     0.066007591142972    -0.028954250102592
    -0.065134615357465     0.059273838759451     0.005165936555810
    -0.007566896574253    -0.049617996325834    -0.055081563409276
   1  21
     0.240474401994634     0.000012170765070     0.000011064331882
    -0.000012170765070    -0.087294259251183    -0.121842635553428
    -0.000001106433188    -0.021109638798095    -0.163717812428081
   1  22
     0.011597632678947     0.000016596497823     0.000008851465506
     0.000007745032318    -0.035236577745319    -0.071988968958503
    -0.000001106433188     0.073671853837789    -0.088985995595975
   1  23
    -0.906510669009312    -0.000013277198259     0.000012170765070
    -0.000005532165941    -3.639427198315174     2.544324992373353
     0.000003319299565     2.762043382985818    -3.229275734740693
   1  24
    -0.065162276187170    -0.000004425732753     0.000007745032318
     0.000015490064635     0.336971972505452     0.121970981803262
     0.000008851465506     0.021551105640196    -0.288568839820286
   2   1
    -1.675826944000000     0.000003828000000     0.000001276000000
    -0.000003828000000     0.202396568000000    -0.054607696000000
    -0.000001276000000    -0.054603868000000     0.453301552000000
   2   2
     8.374710828000000     0.000096976000000     0.000089320000000
     0.000096976000000     8.520868972000001    -0.029333964000000
     0.000089320000000    -0.029333964000000    10.861203540000000
   2   3
     0.024653596000000    -0.000000000000000    -0.000001276000000
     0.000003828000000    -0.057176284000000     0.025782856000000
    -0.000001276000000     0.025759888000000     0.077064020000000
   2   4
    -0.037311516000000    -0.000002552000000    -0.000002552000000
    -0.000003828000000    -0.007483740000000     0.010116128000000
    -0.000000000000000     0.010070192000000     0.037860196000000
   2   5
    -0.237333448000000     0.000002552000000    -0.000002552000000
    -0.000010208000000     0.277769888000000    -0.230696972000000
    -0.000012760000000     0.230672728000000    -0.234288912000000
   2   6
     0.347937128000000     0.000006380000000    -0.000006380000000
     0.000003828000000     0.326744044000000     0.006313648000000
     0.000007656000000    -0.006313648000000    -1.212095368000000
   2   7
     0.058080968000000    -0.000001276000000    -0.000003828000000
     0.000000000000000    -0.025537864000000    -0.005910432000000
    -0.000010208000000     0.005895120000000    -0.024369048000000
   2   8
    -0.030039592000000    -0.000006380000000    -0.000002552000000
    -0.000002552000000    -0.060250168000000     0.000447876000000
     0.000006380000000    -0.000489984000000    -0.020293504000000
   2   9
    -0.122899216000000    -0.416154640000000    -0.041531248000000
    -0.403413780000000    -0.585876676000000    -0.035047892000000
     0.015200988000000     0.057397032000000     0.245224232000000
   2  10
    -0.122908148000000     0.416140604000000     0.041528696000000
     0.403397192000000    -0.585886884000000    -0.035047892000000
    -0.015185676000000     0.057427656000000     0.245212748000000
   2  11
    -0.122919632000000     0.403376776000000    -0.015211196000000
     0.416150812000000    -0.585925164000000     0.057440416000000
     0.041533800000000    -0.034995576000000     0.245214024000000
   2  12
    -0.122937496000000    -0.403375500000000     0.015203540000000
    -0.416159744000000    -0.585935372000000     0.057432760000000
    -0.041531248000000    -0.034982816000000     0.245212748000000
   2  13
     0.065194668000000    -0.178943688000000    -0.199574056000000
    -0.021758352000000    -0.039252312000000    -0.068442088000000
     0.021852776000000    -0.183387996000000    -0.126910960000000
   2  14
     0.065189564000000     0.178915616000000     0.199561296000000
     0.021754524000000    -0.039251036000000    -0.068442088000000
    -0.021852776000000    -0.183395652000000    -0.126918616000000
   2  15
     0.065203600000000     0.021740488000000     0.021857880000000
     0.178988348000000    -0.039259968000000     0.183405860000000
    -0.199612336000000     0.068456124000000    -0.126907132000000
   2  16
     0.065184460000000    -0.021760904000000    -0.021865536000000
    -0.178985796000000    -0.039293144000000     0.183421172000000
     0.199614888000000     0.068431880000000    -0.126932652000000
   2  17
    -2.967968302245018    -1.088058652265597    -2.148533925148810
    -1.284264662399453    -1.718883789498285    -1.240001802704616
    -2.466122294629793    -1.367468438153778    -3.261511665679552
   2  18
    -2.967987111609218     1.088025459269951     2.148509583618669
     1.284211553606419    -1.718926940392626    -1.239985206206792
     2.466028247808794    -1.367431925858567    -3.261554816573893
   2  19
    -0.022895421963886     0.065987675345584    -0.028956462968969
    -0.065141253956594     0.059313670354227     0.005158191523493
    -0.007572428740194    -0.049613570593081    -0.055016283851171
   2  20
    -0.022966233687932    -0.066004271843408     0.028956462968969
     0.065126870325147     0.059269413026698     0.005163723689434
     0.007579067339323    -0.049613570593081    -0.055071605510582
   2  21
     0.011669550836182    -0.000006638599129    -0.000012170765070
    -0.000005532165941    -0.035183468952284    -0.071988968958503
    -0.000005532165941     0.073688450335612    -0.088931780369752
   2  22
     0.240466656962317    -0.000015490064635    -0.000009957898694
    -0.000006638599129    -0.087378348173488    -0.121841529120240
     0.000000000000000    -0.021118490263601    -0.163769814787928
   2  23
    -0.065186617717311     0.000006638599129    -0.000009957898694
    -0.000011064331882     0.336968653205887     0.121988684734273
    -0.000004425732753     0.021565489271643    -0.288590968484050
   2  24
    -0.906408877155995    -0.000008851465506     0.000001106433188
     0.000003319299565    -3.639280042701140     2.544219881220472
    -0.000004425732753     2.761988061326406    -3.229238116012293
   3   1
    -0.037317896000000     0.000011484000000     0.000011484000000
     0.000007656000000    -0.007499052000000     0.010057432000000
     0.000007656000000     0.010075296000000     0.037892096000000
   3   2
     0.024653596000000     0.000003828000000    -0.000001276000000
    -0.000000000000000    -0.057176284000000     0.025759888000000
    -0.000001276000000     0.025782856000000     0.077064020000000
   3   3
     8.374666167999999    -0.000167156000000    -0.000169708000000
    -0.000167156000000     8.521001675999999    -0.029256128000000
    -0.000169708000000    -0.029256128000000    10.861355383999999
   3   4
    -1.675892020000000    -0.000006380000000    -0.000007656000000
     0.000001276000000     0.202355736000000    -0.054588556000000
    -0.000000000000000    -0.054593660000000     0.453279860000000
   3   5
    -0.030048524000000     0.000007656000000    -0.000005104000000
     0.000003828000000    -0.060220820000000     0.000489984000000
     0.000010208000000    -0.000455532000000    -0.020304988000000
   3   6
     0.058101384000000    -0.000000000000000     0.000006380000000
     0.000001276000000    -0.025565936000000    -0.005905328000000
     0.000001276000000     0.005915536000000    -0.024395844000000
   3   7
     0.347912884000000     0.000008932000000    -0.000000000000000
     0.000011484000000     0.326707040000000     0.006326408000000
     0.000002552000000    -0.006327684000000    -1.211937144000000
   3   8
    -0.237362796000000    -0.000011484000000     0.000011484000000
     0.000000000000000     0.277763508000000    -0.230685488000000
     0.000003828000000     0.230700800000000    -0.234296568000000
   3   9
    -0.122910700000000    -0.403385708000000     0.015215024000000
    -0.416150812000000    -0.585879228000000     0.057398308000000
    -0.041485312000000    -0.035005784000000     0.245206368000000
   3  10
    -0.122918356000000     0.403401020000000    -0.015209920000000
     0.416138052000000    -0.585890712000000     0.057414896000000
     0.041505728000000    -0.035038960000000     0.245198712000000
   3  11
    -0.122911976000000     0.416173780000000     0.041536352000000
     0.403371672000000    -0.585852432000000    -0.034999404000000
    -0.015194608000000     0.057403412000000     0.245205092000000
   3  12
    -0.122923460000000    -0.416145708000000    -0.041508280000000
    -0.403358912000000    -0.585860088000000    -0.034994300000000
     0.015199712000000     0.057381720000000     0.245207644000000
   3  13
     0.065201048000000    -0.021744316000000    -0.021869364000000
    -0.178907960000000    -0.039230620000000     0.183412240000000
     0.199614888000000     0.068436984000000    -0.126910960000000
   3  14
     0.065198496000000     0.021751972000000     0.021862984000000
     0.178918168000000    -0.039243380000000     0.183403308000000
    -0.199609784000000     0.068470160000000    -0.126918616000000
   3  15
     0.065201048000000     0.178952620000000     0.199576608000000
     0.021755800000000    -0.039228068000000    -0.068470160000000
    -0.021866812000000    -0.183402032000000    -0.126913512000000
   3  16
     0.065181908000000    -0.178955172000000    -0.199584264000000
    -0.021743040000000    -0.039262520000000    -0.068473988000000
     0.021868088000000    -0.183390548000000    -0.126936480000000
   3  17
    -0.022875506166498    -0.065996526811090     0.028957569402157
     0.065121338159206     0.059380056345520     0.005160404389869
     0.007577960906135    -0.049606931993952    -0.054993048754218
   3  18
    -0.022888783364757     0.066014229742102    -0.028952037236216
    -0.065143466822971     0.059357927681756     0.005165936555810
    -0.007562470841500    -0.049609144860328    -0.055032880348994
   3  19
    -2.967988218042407     1.088078568062985     2.148581501775904
     1.284353177054511    -1.718933578991755    -1.240078146594603
     2.466174296989640    -1.367482821785225    -3.261561455173022
   3  20
    -2.968043539701818    -1.088026565703139    -2.148552734513010
    -1.284315558326111    -1.719019880780436    -1.240058230797215
    -2.466136678261240    -1.367458480255084    -3.261620096131998
   3  21
    -0.906289382371667    -0.000016596497823    -0.000002212866376
    -0.000011064331882    -3.639340896526493     2.544311715175095
     0.000001106433188     2.762026786487994    -3.229180581486506
   3  22
    -0.065176659818617    -0.000002212866376     0.000004425732753
     0.000014383631447     0.336964227473134     0.121978726835579
     0.000007745032318     0.021567702138019    -0.288596500649992
   3  23
     0.240458911929999     0.000011064331882    -0.000005532165941
    -0.000008851465506    -0.087361751675665    -0.121831571221546
    -0.000001106433188    -0.021114064530848    -0.163787517718939
   3  24
     0.011612016310394     0.000021022230576    -0.000006638599129
     0.000009957898694    -0.035205597616049    -0.071997820424008
     0.000007745032318     0.073698408234306    -0.088984889162787
   4   1
     0.024616592000000    -0.000001276000000    -0.000007656000000
     0.000002552000000    -0.057233704000000     0.025757336000000
    -0.000001276000000     0.025756060000000     0.077041052000000
   4   2
    -0.037311516000000    -0.000003828000000    -0.000000000000000
    -0.000002552000000    -0.007483740000000     0.010070192000000
    -0.000002552000000     0.010116128000000     0.037860196000000
   4   3
    -1.675892020000000     0.000001276000000    -0.000000000000000
    -0.000006380000000     0.202355736000000    -0.054593660000000
    -0.000007656000000    -0.054588556000000     0.453279860000000
   4   4
     8.374997928000001     0.000114840000000     0.000131428000000
     0.000114840000000     8.521258152000000    -0.029159152000000
     0.000131428000000    -0.029159152000000    10.861791776000000
   4   5
     0.058069484000000     0.000000000000000    -0.000005104000000
    -0.000001276000000    -0.025564660000000    -0.005910432000000
    -0.000008932000000     0.005921916000000    -0.024398396000000
   4   6
    -0.030034488000000    -0.000003828000000    -0.000001276000000
    -0.000006380000000    -0.060252720000000     0.000474672000000
     0.000000000000000    -0.000469568000000    -0.020289676000000
   4   7
    -0.237342380000000     0.000007656000000    -0.000002552000000
    -0.000005104000000     0.277749472000000    -0.230689316000000
    -0.000011484000000     0.230694420000000    -0.234290188000000
   4   8
     0.347967752000000     0.000006380000000    -0.000006380000000
     0.000003828000000     0.326695556000000     0.006323856000000
     0.000008932000000    -0.006321304000000    -1.211942248000000
   4   9
    -0.122904320000000     0.403380604000000    -0.015206092000000
     0.416145708000000    -0.585877952000000     0.057409792000000
     0.041498072000000    -0.034996852000000     0.245189780000000
   4  10
    -0.122924736000000    -0.403392088000000     0.015199712000000
    -0.416131672000000    -0.585890712000000     0.057408516000000
    -0.041509556000000    -0.035019820000000     0.245183400000000
   4  11
    -0.122918356000000    -0.416180160000000    -0.041521040000000
    -0.403356360000000    -0.585853708000000    -0.035003232000000
     0.015207368000000     0.057385548000000     0.245189780000000
   4  12
    -0.122929840000000     0.416152088000000     0.041499348000000
     0.403358912000000    -0.585857536000000    -0.035008336000000
    -0.015206092000000     0.057377892000000     0.245179572000000
   4  13
     0.065199772000000     0.021737936000000     0.021859156000000
     0.178902856000000    -0.039228068000000     0.183404584000000
    -0.199611060000000     0.068451020000000    -0.126909684000000
   4  14
     0.065183184000000    -0.021744316000000    -0.021854052000000
    -0.178897752000000    -0.039234448000000     0.183395652000000
     0.199599576000000     0.068472712000000    -0.126914788000000
   4  15
     0.065193392000000    -0.178955172000000    -0.199586816000000
    -0.021746868000000    -0.039219136000000    -0.068465056000000
     0.021871916000000    -0.183417344000000    -0.126903304000000
   4  16
     0.065176804000000     0.178969208000000     0.199599576000000
     0.021741764000000    -0.039256140000000    -0.068465056000000
    -0.021871916000000    -0.183398204000000    -0.126939032000000
   4  17
    -0.022867761134181     0.065992101078337    -0.028959782268533
    -0.065143466822971     0.059365672714073     0.005169255855375
    -0.007555832242371    -0.049614677026269    -0.055007432385665
   4  18
    -0.022906486295768    -0.066014229742102     0.028955356535780
     0.065125763891959     0.059346863349873     0.005152659357552
     0.007558045108747    -0.049606931993952    -0.055036199648559
   4  19
    -2.967998175941100    -1.088067503731103    -2.148570437444022
    -1.284370879985523    -1.718932472558567    -1.240088104493297
    -2.466179829155581    -1.367483928218413    -3.261565880905775
   4  20
    -2.968051284734135     1.088029885002703     2.148566011711269
     1.284328835524370    -1.719018774347248    -1.240056017930839
     2.466107910998346    -1.367455160955519    -3.261640011929386
   4  21
    -0.065133508924277     0.000008851465506    -0.000001106433188
    -0.000014383631447     0.337031719897616     0.121957704605003
    -0.000013277198259     0.021574340737149    -0.288524582492757
   4  22
    -0.906479688880042    -0.000000000000000     0.000004425732753
     0.000004425732753    -3.639428304748363     2.544279628612636
    -0.000001106433188     2.762041170119441    -3.229233690279540
   4  23
     0.011566652549677    -0.000013277198259     0.000003319299565
    -0.000006638599129    -0.035249854943578    -0.071983436792562
    -0.000014383631447     0.073675173137354    -0.089019188591622
   4  24
     0.240465550529129    -0.000018809364200     0.000004425732753
    -0.000007745032318    -0.087342942311465    -0.121848167719369
     0.000002212866376    -0.021112958097660    -0.163787517718939
   5   1
     0.347907780000000     0.000008932000000     0.000002552000000
     0.000006380000000     0.326698108000000    -0.006331512000000
     0.000001276000000     0.006318752000000    -1.212043052000000
   5   2
    -0.237333448000000    -0.000010208000000    -0.000012760000000
     0.000002552000000     0.277769888000000     0.230672728000000
    -0.000002552000000    -0.230696972000000    -0.234288912000000
   5   3
    -0.030048524000000     0.000003828000000     0.000010208000000
     0.000007656000000    -0.060220820000000    -0.000455532000000
    -0.000005104000000     0.000489984000000    -0.020304988000000
   5   4
     0.058069484000000    -0.000001276000000    -0.000008932000000
     0.000000000000000    -0.025564660000000     0.005921916000000
    -0.000005104000000    -0.005910432000000    -0.024398396000000
   5   5
     8.375102560000000    -0.000149292000000     0.000137808000000
    -0.000149292000000     8.521159899999999     0.029308444000000
     0.000137808000000     0.029308444000000    10.861513607999999
   5   6
    -1.675862672000000    -0.000006380000000     0.000001276000000
     0.000008932000000     0.202332768000000     0.054591108000000
    -0.000005104000000     0.054587280000000     0.453315588000000
   5   7
    -0.037326828000000     0.000005104000000    -0.000008932000000
     0.000007656000000    -0.007474808000000    -0.010107196000000
    -0.000008932000000    -0.010057432000000     0.037913788000000
   5   8
     0.024631904000000     0.000002552000000     0.000002552000000
     0.000000000000000    -0.057190320000000    -0.025784132000000
     0.000002552000000    -0.025757336000000     0.077092092000000
   5   9
     0.065198496000000     0.178956448000000    -0.199589368000000
     0.021745592000000    -0.039242104000000     0.068438260000000
     0.021862984000000     0.183395652000000    -0.126922444000000
   5  10
     0.065175528000000    -0.178936032000000     0.199575332000000
    -0.021717520000000    -0.039252312000000     0.068430604000000
    -0.021848948000000     0.183379064000000    -0.126935204000000
   5  11
     0.065179356000000    -0.021740488000000     0.021860432000000
    -0.178933480000000    -0.039259968000000    -0.183379064000000
    -0.199613612000000    -0.068443364000000    -0.126917340000000
   5  12
     0.065171700000000     0.021748144000000    -0.021865536000000
     0.178947516000000    -0.039258692000000    -0.183384168000000
     0.199614888000000    -0.068458676000000    -0.126941584000000
   5  13
    -0.122913252000000     0.416159744000000    -0.041531248000000
     0.403355084000000    -0.585858812000000     0.035045340000000
     0.015192056000000    -0.057408516000000     0.245192332000000
   5  14
    -0.122922184000000    -0.416121464000000     0.041533800000000
    -0.403342324000000    -0.585858812000000     0.035040236000000
    -0.015194608000000    -0.057376616000000     0.245180848000000
   5  15
    -0.122922184000000    -0.403394640000000    -0.015223956000000
    -0.416175056000000    -0.585900920000000    -0.057441692000000
     0.041476380000000     0.034995576000000     0.245182124000000
   5  16
    -0.122937496000000     0.403429092000000     0.015221404000000
     0.416187816000000    -0.585934096000000    -0.057445520000000
    -0.041480208000000     0.035050444000000     0.245166812000000
   5  17
    -2.967959450779513     1.088066397297915    -2.148768488984713
     1.284275726731336    -1.718920301793496     1.240085891626921
    -2.466104591698782     1.367487247517978    -3.261545965108387
   5  18
    -2.967992643775160    -1.088019927104010     2.148729763823126
    -1.284225937237865    -1.718965665554214     1.240062656529968
     2.466054802205312     1.367455160955519    -3.261574732371281
   5  19
    -0.022916444194462    -0.065987675345584    -0.028995188130556
     0.065121338159206     0.059329160418862    -0.005130530693787
    -0.007579067339323     0.049608038427140    -0.055028454616241
   5  20
    -0.022966233687932     0.066005378276596     0.028986336665051
    -0.065133508924277     0.059279370925392    -0.005119466361905
     0.007563577274688     0.049604719127575    -0.055093734174347
   5  21
     0.240475508427823     0.000007745032318     0.000007745032318
    -0.000009957898694    -0.087297578550748     0.121778462428511
     0.000003319299565     0.021103000198966    -0.163699003063882
   5  22
     0.011597632678947     0.000017702931012     0.000003319299565
     0.000011064331882    -0.035235471312131     0.071963520995174
    -0.000011064331882    -0.073671853837789    -0.088915183871929
   5  23
    -0.906508456142936    -0.000013277198259    -0.000005532165941
    -0.000008851465506    -3.639402856785034    -2.544513086015351
     0.000004425732753    -2.762083214580593    -3.229400761690962
   5  24
    -0.065164489053547    -0.000005532165941    -0.000006638599129
     0.000009957898694     0.336977504671393    -0.121923405176168
     0.000006638599129    -0.021546679907443    -0.288442706436829
   6   1
    -0.237329620000000     0.000001276000000     0.000001276000000
    -0.000015312000000     0.277748196000000     0.230653588000000
     0.000010208000000    -0.230689316000000    -0.234294016000000
   6   2
     0.347937128000000     0.000003828000000     0.000007656000000
     0.000006380000000     0.326744044000000    -0.006313648000000
    -0.000006380000000     0.006313648000000    -1.212095368000000
   6   3
     0.058101384000000     0.000001276000000     0.000001276000000
    -0.000000000000000    -0.025565936000000     0.005915536000000
     0.000006380000000    -0.005905328000000    -0.024395844000000
   6   4
    -0.030034488000000    -0.000006380000000     0.000000000000000
    -0.000003828000000    -0.060252720000000    -0.000469568000000
    -0.000001276000000     0.000474672000000    -0.020289676000000
   6   5
    -1.675862672000000     0.000008932000000    -0.000005104000000
    -0.000006380000000     0.202332768000000     0.054587280000000
     0.000001276000000     0.054591108000000     0.453315588000000
   6   6
     8.374705724000000     0.000088044000000    -0.000094424000000
     0.000088044000000     8.521089719999999     0.029354380000000
    -0.000094424000000     0.029354380000000    10.861359212000000
   6   7
     0.024651044000000    -0.000001276000000    -0.000001276000000
     0.000001276000000    -0.057210736000000    -0.025775200000000
    -0.000001276000000    -0.025750956000000     0.077106128000000
   6   8
    -0.037319172000000    -0.000003828000000     0.000000000000000
    -0.000000000000000    -0.007492672000000    -0.010081676000000
    -0.000000000000000    -0.010072744000000     0.037901028000000
   6   9
     0.065199772000000    -0.178951344000000     0.199584264000000
    -0.021745592000000    -0.039221688000000     0.068456124000000
    -0.021869364000000     0.183396928000000    -0.126919892000000
   6  10
     0.065194668000000     0.178943688000000    -0.199572780000000
     0.021720072000000    -0.039237000000000     0.068456124000000
     0.021851500000000     0.183377788000000    -0.126928824000000
   6  11
     0.065193392000000     0.021740488000000    -0.021860432000000
     0.178918168000000    -0.039243380000000    -0.183395652000000
     0.199613612000000    -0.068443364000000    -0.126912236000000
   6  12
     0.065176804000000    -0.021744316000000     0.021862984000000
    -0.178924548000000    -0.039247208000000    -0.183407136000000
    -0.199617440000000    -0.068463780000000    -0.126933928000000
   6  13
    -0.122904320000000    -0.416158468000000     0.041524868000000
    -0.403341048000000    -0.585849880000000     0.035008336000000
    -0.015189504000000    -0.057399584000000     0.245194884000000
   6  14
    -0.122910700000000     0.416130396000000    -0.041526144000000
     0.403343600000000    -0.585848604000000     0.035014716000000
     0.015193332000000    -0.057376616000000     0.245187228000000
   6  15
    -0.122910700000000     0.403398468000000     0.015225232000000
     0.416172504000000    -0.585881780000000    -0.057422552000000
    -0.041482760000000     0.034991748000000     0.245177020000000
   6  16
    -0.122927288000000    -0.403422712000000    -0.015217576000000
    -0.416177608000000    -0.585921336000000    -0.057413620000000
     0.041484036000000     0.035041512000000     0.245174468000000
   6  17
    -2.967966089378642    -1.088058652265597     2.148760743952396
    -1.284297855395100    -1.718919195360308     1.240099168825179
     2.466136678261240     1.367485034651601    -3.261537113642882
   6  18
    -2.967988218042407     1.088027672136327    -2.148749679620513
     1.284246959468442    -1.718965665554214     1.240085891626921
    -2.466031567108359     1.367451841655955    -3.261582477403599
   6  19
    -0.022893209097510     0.065990994645149     0.028996294563745
    -0.065130189624712     0.059333586151615    -0.005128317827411
     0.007572428740194     0.049603612694387    -0.055026241749865
   6  20
    -0.022969552987497    -0.066004271843408    -0.028988549531427
     0.065113593126889     0.059290435257274    -0.005122785661470
    -0.007580173772512     0.049608038427140    -0.055088202008405
   6  21
     0.011668444402994    -0.000009957898694    -0.000008851465506
    -0.000006638599129    -0.035170191754026     0.071955775962856
     0.000007745032318    -0.073686237469236    -0.088857649346141
   6  22
     0.240465550529129    -0.000014383631447     0.000002212866376
    -0.000008851465506    -0.087355113076535     0.121783994594452
     0.000005532165941     0.021104106632154    -0.163768708354740
   6  23
    -0.065189937016876     0.000007745032318     0.000003319299565
    -0.000007745032318     0.336949843841687    -0.121899063646027