# Sigma = 0.089385
       -1.2946933029        0.0000000000
       -1.2410621124        0.0000000000
       -1.1874309220        0.0000000000
       -1.1337997315        0.0000000000
       -1.0801685410        0.0000000000
       -1.0265373505        0.0000000000
       -0.9729061600        0.0000000000
       -0.9192749695        0.0000000017
       -0.8656437790        0.0000000495
       -0.8120125886        0.0000010424
       -0.7583813981        0.0000154942
       -0.7047502076        0.0001631868
       -0.6511190171        0.0012227890
       -0.5974878266        0.0065555557
       -0.5438566361        0.0253475543
       -0.4902254456        0.0715120678
       -0.4365942552        0.1497455236
       -0.3829630647        0.2386174876
       -0.3293318742        0.2997401790
       -0.2757006837        0.3106646739
       -0.2220694932        0.2790872379
       -0.1684383027        0.2263272801
       -0.1148071122        0.1727070870
       -0.0611759218        0.1406485811
       -0.0075447313        0.1557508457
        0.0460864592        0.2317855869
        0.0997176497        0.3577997443
        0.1533488402        0.5082335282
        0.2069800307        0.6632855127
        0.2606112212        0.8152257292
        0.3142424116        0.9623440207
        0.3678736021        1.1044712338
        0.4215047926        1.2422259905
        0.4751359831        1.3766412562
        0.5287671736        1.5087377802
        0.5823983641        1.6394007131
        0.6360295546        1.7693941439
        0.6896607451        1.8993887909
        0.7432919355        2.0299862466
        0.7969231260        2.1617390846
        0.8505543165        2.2951677707
        0.9041855070        2.4307757058
        0.9578166975        2.5690626118
        1.0114478880        2.7105363057
        1.0650790785        2.8557238867
        1.1187102689        3.0051836896
        1.1723414594        3.1595186712
        1.2259726499        3.3193916060
        1.2796038404        3.4855428243
        1.3332350309        3.6588117137
        1.3868662214        3.8401643824
        1.4404974119        4.0307312328
        1.4941286023        4.2318582523
        1.5477597928        4.4451767352
        1.6013909833        4.6727009120
        1.6550221738        4.9169715607
        1.7086533643        5.1812776130
        1.7622845548        5.4700153724
        1.8159157453        5.7893129338
        1.8695469357        6.1482403849
        1.9231781262        6.5614682497
        1.9768093167        7.0551410534
        2.0304405072        7.6757927389
        2.0840716977        8.4867031409
        2.1377028882        9.5116497760
        2.1913340787       10.6296421137
        2.2449652691       11.5829921851
        2.2985964596       12.2491490605
        2.3522276501       12.8812379968
        2.4058588406       13.8061474254
        2.4594900311       14.8161986653
        2.5131212216       15.1940492255
        2.5667524121       14.4973695906
        2.6203836025       13.0247866399
        2.6740147930       11.4581791166
        2.7276459835       10.3857401940
        2.7812771740       10.1707576696
        2.8349083645       10.9779243286
        2.8885395550       12.8075055365
        2.9421707455       15.4372293398
        2.9958019360       18.2428653733
        3.0494331264       20.2393818251
        3.1030643169       20.5339520354
        3.1566955074       18.7613964500
        3.2103266979       15.3348835502
        3.2639578884       11.6002323958
        3.3175890789        9.1932297662
        3.3712202694        8.7071104386
        3.4248514598        9.4042227443
        3.4784826503       10.3033633435
        3.5321138408       11.0699734523
        3.5857450313       11.9367511861
        3.6393762218       13.1424108397
        3.6930074123       14.4654383295
        3.7466386028       15.2508007251
        3.8002697932       15.0065509306
        3.8539009837       13.9254570229
        3.9075321742       12.6598691367
        3.9611633647       11.7229619062
        4.0147945552       11.2684949765
        4.0684257457       11.2767937698
        4.1220569362       11.8439784194
        4.1756881266       13.4441688367
        4.2293193171       16.6872377495
        4.2829505076       21.1095555981
        4.3365816981       24.4142323487
        4.3902128886       24.2930294684
        4.4438440791       21.3165679791
        4.4974752696       18.7437117295
        4.5511064600       18.9344044173
        4.6047376505       20.8389036969
        4.6583688410       21.4396006169
        4.7120000315       18.9862694022
        4.7656312220       14.3528494640
        4.8192624125        9.6617664951
        4.8728936030        6.3290533447
        4.9265247935        4.4863189094
        4.9801559839        3.5963326153
        5.0337871744        3.1332850382
        5.0874183649        2.7948056997
        5.1410495554        2.4192530019
        5.1946807459        1.9155588688
        5.2483119364        1.3003115919
        5.3019431269        0.7136893181
        5.3555743173        0.3028521338
        5.4092055078        0.0963163239
        5.4628366983        0.0224850668
        5.5164678888        0.0038002673
        5.5700990793        0.0004606948
        5.6237302698        0.0000398016
        5.6773614603        0.0000024395
        5.7309926507        0.0000001057
        5.7846238412        0.0000000032
        5.8382550317        0.0000000001
        5.8918862222        0.0000000000
        5.9455174127        0.0000000001
        5.9991486032        0.0000000073
        6.0527797937        0.0000002685
        6.1064109841        0.0000069697
        6.1600421746        0.0001278362
        6.2136733651        0.0016613134
        6.2673045556        0.0153574443
        6.3209357461        0.1015463976
        6.3745669366        0.4841660096
        6.4281981271        1.6849820531
        6.4818293175        4.3617659885
        6.5354605080        8.6478422442
        6.5890916985       13.7068710526
        6.6427228890       18.3183918097
        6.6963540795       21.6450262216
        6.7499852700       23.1046298571
        6.8036164605       22.2977330059
        6.8572476509       19.9615901076
        6.9108788414       18.4560497335
        6.9645100319       19.7947881544
        7.0181412224       22.9556664526
        7.0717724129       24.7086482727
        7.1254036034       23.3666371694
        7.1790347939       20.2097009141
        7.2326659844       17.3884086357
        7.2862971748       15.9188948233
        7.3399283653       15.5623817260
        7.3935595558       15.4475738808
        7.4471907463       14.6679228232
        7.5008219368       12.9285333936
        7.5544531273       10.7361405989
        7.6080843178        8.7895869251
        7.6617155082        7.3825845628
        7.7153466987        6.4323208761
        7.7689778892        5.7677165331
        7.8226090797        5.2709306781
        7.8762402702        4.8794224475
        7.9298714607        4.5598935308
        7.9835026512        4.2927073727
        8.0371338416        4.0651700454
        8.0907650321        3.8685568942
        8.1443962226        3.6966017003
        8.1980274131        3.5445177933
        8.2516586036        3.4074263977
        8.3052897941        3.2747007188
        8.3589209846        3.1140220636
        8.4125521750        2.8516799607
        8.4661833655        2.3951691005
        8.5198145560        1.7349445193
        8.5734457465        1.0220565452
        8.6270769370        0.4676184642
        8.6807081275        0.1608578644
        8.7343393180        0.0407062443
        8.7879705084        0.0074687179
        8.8416016989        0.0009839019
        8.8952328894        0.0000924392
        8.9488640799        0.0000061645
        9.0024952704        0.0000002908
        9.0561264609        0.0000000097
        9.1097576514        0.0000000002
        9.1633888418        0.0000000000
        9.2170200323        0.0000000000
        9.2706512228        0.0000000000
        9.3242824133        0.0000000000
        9.3779136038        0.0000000000
        9.4315447943        0.0000000000
