<?xml version="1.0" encoding="ISO-8859-1"?>
<modeling>
 <generator>
  <i name="program" type="string">vasp </i>
  <i name="version" type="string">5.3.5  </i>
  <i name="subversion" type="string">31Mar14 (build Mar 18 2017 11:34:20) complex                          parallel </i>
  <i name="platform" type="string">LinuxIFC </i>
  <i name="date" type="string">2017 07 28 </i>
  <i name="time" type="string">16:45:17 </i>
 </generator>
 <incar>
  <i type="string" name="SYSTEM"> MoTe2 with Spin orbit Phonon calculatio</i>
  <i type="string" name="PREC">accurate</i>
  <i type="string" name="ALGO"> Normal</i>
  <i type="logical" name="ADDGRID"> T  </i>
  <i type="logical" name="LSORBIT"> T  </i>
  <i type="int" name="ISPIN">     2</i>
  <i type="int" name="ICHARG">     1</i>
  <i type="int" name="NELMDL">    -5</i>
  <i type="int" name="IBRION">     8</i>
  <i name="EDIFF">      0.00001000</i>
  <i type="int" name="NSW">     1</i>
  <i type="int" name="ISIF">     2</i>
  <i type="int" name="ISYM">     0</i>
  <i name="ENCUT">    350.00000000</i>
  <i name="POTIM">      0.50000000</i>
  <i type="logical" name="LREAL"> F  </i>
  <i type="int" name="ISMEAR">     0</i>
  <i name="SIGMA">      0.05000000</i>
  <i type="int" name="NWRITE">     3</i>
  <i type="int" name="LMAXMIX">     4</i>
  <i type="logical" name="LWAVE"> F  </i>
  <i type="logical" name="LCHARG"> F  </i>
 </incar>
 <kpoints>
  <generation param="Monkhorst-Pack">
   <v type="int" name="divisions">      18       18        1 </v>
   <v name="usershift">      0.00000000       0.00000000       0.00000000 </v>
   <v name="genvec1">      0.05555556       0.00000000       0.00000000 </v>
   <v name="genvec2">      0.00000000       0.05555556       0.00000000 </v>
   <v name="genvec3">      0.00000000       0.00000000       1.00000000 </v>
   <v name="shift">      0.50000000       0.50000000       0.00000000 </v>
  </generation>
  <varray name="kpointlist" >
   <v>       0.02777778       0.02777778       0.00000000 </v>
   <v>       0.08333333       0.02777778       0.00000000 </v>
   <v>       0.13888889       0.02777778       0.00000000 </v>
   <v>       0.19444444       0.02777778       0.00000000 </v>
   <v>       0.25000000       0.02777778       0.00000000 </v>
   <v>       0.30555556       0.02777778       0.00000000 </v>
   <v>       0.36111111       0.02777778       0.00000000 </v>
   <v>       0.41666667       0.02777778       0.00000000 </v>
   <v>       0.47222222       0.02777778       0.00000000 </v>
   <v>      -0.47222222       0.02777778       0.00000000 </v>
   <v>      -0.41666667       0.02777778       0.00000000 </v>
   <v>      -0.36111111       0.02777778       0.00000000 </v>
   <v>      -0.30555556       0.02777778       0.00000000 </v>
   <v>      -0.25000000       0.02777778       0.00000000 </v>
   <v>      -0.19444444       0.02777778       0.00000000 </v>
   <v>      -0.13888889       0.02777778       0.00000000 </v>
   <v>      -0.08333333       0.02777778       0.00000000 </v>
   <v>      -0.02777778       0.02777778       0.00000000 </v>
   <v>       0.02777778       0.08333333       0.00000000 </v>
   <v>       0.08333333       0.08333333       0.00000000 </v>
   <v>       0.13888889       0.08333333       0.00000000 </v>
   <v>       0.19444444       0.08333333       0.00000000 </v>
   <v>       0.25000000       0.08333333       0.00000000 </v>
   <v>       0.30555556       0.08333333       0.00000000 </v>
   <v>       0.36111111       0.08333333       0.00000000 </v>
   <v>       0.41666667       0.08333333       0.00000000 </v>
   <v>       0.47222222       0.08333333       0.00000000 </v>
   <v>      -0.47222222       0.08333333       0.00000000 </v>
   <v>      -0.41666667       0.08333333       0.00000000 </v>
   <v>      -0.36111111       0.08333333       0.00000000 </v>
   <v>      -0.30555556       0.08333333       0.00000000 </v>
   <v>      -0.25000000       0.08333333       0.00000000 </v>
   <v>      -0.19444444       0.08333333       0.00000000 </v>
   <v>      -0.13888889       0.08333333       0.00000000 </v>
   <v>      -0.08333333       0.08333333       0.00000000 </v>
   <v>      -0.02777778       0.08333333       0.00000000 </v>
   <v>       0.02777778       0.13888889       0.00000000 </v>
   <v>       0.08333333       0.13888889       0.00000000 </v>
   <v>       0.13888889       0.13888889       0.00000000 </v>
   <v>       0.19444444       0.13888889       0.00000000 </v>
   <v>       0.25000000       0.13888889       0.00000000 </v>
   <v>       0.30555556       0.13888889       0.00000000 </v>
   <v>       0.36111111       0.13888889       0.00000000 </v>
   <v>       0.41666667       0.13888889       0.00000000 </v>
   <v>       0.47222222       0.13888889       0.00000000 </v>
   <v>      -0.47222222       0.13888889       0.00000000 </v>
   <v>      -0.41666667       0.13888889       0.00000000 </v>
   <v>      -0.36111111       0.13888889       0.00000000 </v>
   <v>      -0.30555556       0.13888889       0.00000000 </v>
   <v>      -0.25000000       0.13888889       0.00000000 </v>
   <v>      -0.19444444       0.13888889       0.00000000 </v>
   <v>      -0.13888889       0.13888889       0.00000000 </v>
   <v>      -0.08333333       0.13888889       0.00000000 </v>
   <v>      -0.02777778       0.13888889       0.00000000 </v>
   <v>       0.02777778       0.19444444       0.00000000 </v>
   <v>       0.08333333       0.19444444       0.00000000 </v>
   <v>       0.13888889       0.19444444       0.00000000 </v>
   <v>       0.19444444       0.19444444       0.00000000 </v>
   <v>       0.25000000       0.19444444       0.00000000 </v>
   <v>       0.30555556       0.19444444       0.00000000 </v>
   <v>       0.36111111       0.19444444       0.00000000 </v>
   <v>       0.41666667       0.19444444       0.00000000 </v>
   <v>       0.47222222       0.19444444       0.00000000 </v>
   <v>      -0.47222222       0.19444444       0.00000000 </v>
   <v>      -0.41666667       0.19444444       0.00000000 </v>
   <v>      -0.36111111       0.19444444       0.00000000 </v>
   <v>      -0.30555556       0.19444444       0.00000000 </v>
   <v>      -0.25000000       0.19444444       0.00000000 </v>
   <v>      -0.19444444       0.19444444       0.00000000 </v>
   <v>      -0.13888889       0.19444444       0.00000000 </v>
   <v>      -0.08333333       0.19444444       0.00000000 </v>
   <v>      -0.02777778       0.19444444       0.00000000 </v>
   <v>       0.02777778       0.25000000       0.00000000 </v>
   <v>       0.08333333       0.25000000       0.00000000 </v>
   <v>       0.13888889       0.25000000       0.00000000 </v>
   <v>       0.19444444       0.25000000       0.00000000 </v>
   <v>       0.25000000       0.25000000       0.00000000 </v>
   <v>       0.30555556       0.25000000       0.00000000 </v>
   <v>       0.36111111       0.25000000       0.00000000 </v>
   <v>       0.41666667       0.25000000       0.00000000 </v>
   <v>       0.47222222       0.25000000       0.00000000 </v>
   <v>      -0.47222222       0.25000000       0.00000000 </v>
   <v>      -0.41666667       0.25000000       0.00000000 </v>
   <v>      -0.36111111       0.25000000       0.00000000 </v>
   <v>      -0.30555556       0.25000000       0.00000000 </v>
   <v>      -0.25000000       0.25000000       0.00000000 </v>
   <v>      -0.19444444       0.25000000       0.00000000 </v>
   <v>      -0.13888889       0.25000000       0.00000000 </v>
   <v>      -0.08333333       0.25000000       0.00000000 </v>
   <v>      -0.02777778       0.25000000       0.00000000 </v>
   <v>       0.02777778       0.30555556       0.00000000 </v>
   <v>       0.08333333       0.30555556       0.00000000 </v>
   <v>       0.13888889       0.30555556       0.00000000 </v>
   <v>       0.19444444       0.30555556       0.00000000 </v>
   <v>       0.25000000       0.30555556       0.00000000 </v>
   <v>       0.30555556       0.30555556       0.00000000 </v>
   <v>       0.36111111       0.30555556       0.00000000 </v>
   <v>       0.41666667       0.30555556       0.00000000 </v>
   <v>       0.47222222       0.30555556       0.00000000 </v>
   <v>      -0.47222222       0.30555556       0.00000000 </v>
   <v>      -0.41666667       0.30555556       0.00000000 </v>
   <v>      -0.36111111       0.30555556       0.00000000 </v>
   <v>      -0.30555556       0.30555556       0.00000000 </v>
   <v>      -0.25000000       0.30555556       0.00000000 </v>
   <v>      -0.19444444       0.30555556       0.00000000 </v>
   <v>      -0.13888889       0.30555556       0.00000000 </v>
   <v>      -0.08333333       0.30555556       0.00000000 </v>
   <v>      -0.02777778       0.30555556       0.00000000 </v>
   <v>       0.02777778       0.36111111       0.00000000 </v>
   <v>       0.08333333       0.36111111       0.00000000 </v>
   <v>       0.13888889       0.36111111       0.00000000 </v>
   <v>       0.19444444       0.36111111       0.00000000 </v>
   <v>       0.25000000       0.36111111       0.00000000 </v>
   <v>       0.30555556       0.36111111       0.00000000 </v>
   <v>       0.36111111       0.36111111       0.00000000 </v>
   <v>       0.41666667       0.36111111       0.00000000 </v>
   <v>       0.47222222       0.36111111       0.00000000 </v>
   <v>      -0.47222222       0.36111111       0.00000000 </v>
   <v>      -0.41666667       0.36111111       0.00000000 </v>
   <v>      -0.36111111       0.36111111       0.00000000 </v>
   <v>      -0.30555556       0.36111111       0.00000000 </v>
   <v>      -0.25000000       0.36111111       0.00000000 </v>
   <v>      -0.19444444       0.36111111       0.00000000 </v>
   <v>      -0.13888889       0.36111111       0.00000000 </v>
   <v>      -0.08333333       0.36111111       0.00000000 </v>
   <v>      -0.02777778       0.36111111       0.00000000 </v>
   <v>       0.02777778       0.41666667       0.00000000 </v>
   <v>       0.08333333       0.41666667       0.00000000 </v>
   <v>       0.13888889       0.41666667       0.00000000 </v>
   <v>       0.19444444       0.41666667       0.00000000 </v>
   <v>       0.25000000       0.41666667       0.00000000 </v>
   <v>       0.30555556       0.41666667       0.00000000 </v>
   <v>       0.36111111       0.41666667       0.00000000 </v>
   <v>       0.41666667       0.41666667       0.00000000 </v>
   <v>       0.47222222       0.41666667       0.00000000 </v>
   <v>      -0.47222222       0.41666667       0.00000000 </v>
   <v>      -0.41666667       0.41666667       0.00000000 </v>
   <v>      -0.36111111       0.41666667       0.00000000 </v>
   <v>      -0.30555556       0.41666667       0.00000000 </v>
   <v>      -0.25000000       0.41666667       0.00000000 </v>
   <v>      -0.19444444       0.41666667       0.00000000 </v>
   <v>      -0.13888889       0.41666667       0.00000000 </v>
   <v>      -0.08333333       0.41666667       0.00000000 </v>
   <v>      -0.02777778       0.41666667       0.00000000 </v>
   <v>       0.02777778       0.47222222       0.00000000 </v>
   <v>       0.08333333       0.47222222       0.00000000 </v>
   <v>       0.13888889       0.47222222       0.00000000 </v>
   <v>       0.19444444       0.47222222       0.00000000 </v>
   <v>       0.25000000       0.47222222       0.00000000 </v>
   <v>       0.30555556       0.47222222       0.00000000 </v>
   <v>       0.36111111       0.47222222       0.00000000 </v>
   <v>       0.41666667       0.47222222       0.00000000 </v>
   <v>       0.47222222       0.47222222       0.00000000 </v>
   <v>      -0.47222222       0.47222222       0.00000000 </v>
   <v>      -0.41666667       0.47222222       0.00000000 </v>
   <v>      -0.36111111       0.47222222       0.00000000 </v>
   <v>      -0.30555556       0.47222222       0.00000000 </v>
   <v>      -0.25000000       0.47222222       0.00000000 </v>
   <v>      -0.19444444       0.47222222       0.00000000 </v>
   <v>      -0.13888889       0.47222222       0.00000000 </v>
   <v>      -0.08333333       0.47222222       0.00000000 </v>
   <v>      -0.02777778       0.47222222       0.00000000 </v>
   <v>       0.02777778      -0.47222222       0.00000000 </v>
   <v>       0.08333333      -0.47222222       0.00000000 </v>
   <v>       0.13888889      -0.47222222       0.00000000 </v>
   <v>       0.19444444      -0.47222222       0.00000000 </v>
   <v>       0.25000000      -0.47222222       0.00000000 </v>
   <v>       0.30555556      -0.47222222       0.00000000 </v>
   <v>       0.36111111      -0.47222222       0.00000000 </v>
   <v>       0.41666667      -0.47222222       0.00000000 </v>
   <v>       0.47222222      -0.47222222       0.00000000 </v>
   <v>      -0.47222222      -0.47222222       0.00000000 </v>
   <v>      -0.41666667      -0.47222222       0.00000000 </v>
   <v>      -0.36111111      -0.47222222       0.00000000 </v>
   <v>      -0.30555556      -0.47222222       0.00000000 </v>
   <v>      -0.25000000      -0.47222222       0.00000000 </v>
   <v>      -0.19444444      -0.47222222       0.00000000 </v>
   <v>      -0.13888889      -0.47222222       0.00000000 </v>
   <v>      -0.08333333      -0.47222222       0.00000000 </v>
   <v>      -0.02777778      -0.47222222       0.00000000 </v>
   <v>       0.02777778      -0.41666667       0.00000000 </v>
   <v>       0.08333333      -0.41666667       0.00000000 </v>
   <v>       0.13888889      -0.41666667       0.00000000 </v>
   <v>       0.19444444      -0.41666667       0.00000000 </v>
   <v>       0.25000000      -0.41666667       0.00000000 </v>
   <v>       0.30555556      -0.41666667       0.00000000 </v>
   <v>       0.36111111      -0.41666667       0.00000000 </v>
   <v>       0.41666667      -0.41666667       0.00000000 </v>
   <v>       0.47222222      -0.41666667       0.00000000 </v>
   <v>      -0.47222222      -0.41666667       0.00000000 </v>
   <v>      -0.41666667      -0.41666667       0.00000000 </v>
   <v>      -0.36111111      -0.41666667       0.00000000 </v>
   <v>      -0.30555556      -0.41666667       0.00000000 </v>
   <v>      -0.25000000      -0.41666667       0.00000000 </v>
   <v>      -0.19444444      -0.41666667       0.00000000 </v>
   <v>      -0.13888889      -0.41666667       0.00000000 </v>
   <v>      -0.08333333      -0.41666667       0.00000000 </v>
   <v>      -0.02777778      -0.41666667       0.00000000 </v>
   <v>       0.02777778      -0.36111111       0.00000000 </v>
   <v>       0.08333333      -0.36111111       0.00000000 </v>
   <v>       0.13888889      -0.36111111       0.00000000 </v>
   <v>       0.19444444      -0.36111111       0.00000000 </v>
   <v>       0.25000000      -0.36111111       0.00000000 </v>
   <v>       0.30555556      -0.36111111       0.00000000 </v>
   <v>       0.36111111      -0.36111111       0.00000000 </v>
   <v>       0.41666667      -0.36111111       0.00000000 </v>
   <v>       0.47222222      -0.36111111       0.00000000 </v>
   <v>      -0.47222222      -0.36111111       0.00000000 </v>
   <v>      -0.41666667      -0.36111111       0.00000000 </v>
   <v>      -0.36111111      -0.36111111       0.00000000 </v>
   <v>      -0.30555556      -0.36111111       0.00000000 </v>
   <v>      -0.25000000      -0.36111111       0.00000000 </v>
   <v>      -0.19444444      -0.36111111       0.00000000 </v>
   <v>      -0.13888889      -0.36111111       0.00000000 </v>
   <v>      -0.08333333      -0.36111111       0.00000000 </v>
   <v>      -0.02777778      -0.36111111       0.00000000 </v>
   <v>       0.02777778      -0.30555556       0.00000000 </v>
   <v>       0.08333333      -0.30555556       0.00000000 </v>
   <v>       0.13888889      -0.30555556       0.00000000 </v>
   <v>       0.19444444      -0.30555556       0.00000000 </v>
   <v>       0.25000000      -0.30555556       0.00000000 </v>
   <v>       0.30555556      -0.30555556       0.00000000 </v>
   <v>       0.36111111      -0.30555556       0.00000000 </v>
   <v>       0.41666667      -0.30555556       0.00000000 </v>
   <v>       0.47222222      -0.30555556       0.00000000 </v>
   <v>      -0.47222222      -0.30555556       0.00000000 </v>
   <v>      -0.41666667      -0.30555556       0.00000000 </v>
   <v>      -0.36111111      -0.30555556       0.00000000 </v>
   <v>      -0.30555556      -0.30555556       0.00000000 </v>
   <v>      -0.25000000      -0.30555556       0.00000000 </v>
   <v>      -0.19444444      -0.30555556       0.00000000 </v>
   <v>      -0.13888889      -0.30555556       0.00000000 </v>
   <v>      -0.08333333      -0.30555556       0.00000000 </v>
   <v>      -0.02777778      -0.30555556       0.00000000 </v>
   <v>       0.02777778      -0.25000000       0.00000000 </v>
   <v>       0.08333333      -0.25000000       0.00000000 </v>
   <v>       0.13888889      -0.25000000       0.00000000 </v>
   <v>       0.19444444      -0.25000000       0.00000000 </v>
   <v>       0.25000000      -0.25000000       0.00000000 </v>
   <v>       0.30555556      -0.25000000       0.00000000 </v>
   <v>       0.36111111      -0.25000000       0.00000000 </v>
   <v>       0.41666667      -0.25000000       0.00000000 </v>
   <v>       0.47222222      -0.25000000       0.00000000 </v>
   <v>      -0.47222222      -0.25000000       0.00000000 </v>
   <v>      -0.41666667      -0.25000000       0.00000000 </v>
   <v>      -0.36111111      -0.25000000       0.00000000 </v>
   <v>      -0.30555556      -0.25000000       0.00000000 </v>
   <v>      -0.25000000      -0.25000000       0.00000000 </v>
   <v>      -0.19444444      -0.25000000       0.00000000 </v>
   <v>      -0.13888889      -0.25000000       0.00000000 </v>
   <v>      -0.08333333      -0.25000000       0.00000000 </v>
   <v>      -0.02777778      -0.25000000       0.00000000 </v>
   <v>       0.02777778      -0.19444444       0.00000000 </v>
   <v>       0.08333333      -0.19444444       0.00000000 </v>
   <v>       0.13888889      -0.19444444       0.00000000 </v>
   <v>       0.19444444      -0.19444444       0.00000000 </v>
   <v>       0.25000000      -0.19444444       0.00000000 </v>
   <v>       0.30555556      -0.19444444       0.00000000 </v>
   <v>       0.36111111      -0.19444444       0.00000000 </v>
   <v>       0.41666667      -0.19444444       0.00000000 </v>
   <v>       0.47222222      -0.19444444       0.00000000 </v>
   <v>      -0.47222222      -0.19444444       0.00000000 </v>
   <v>      -0.41666667      -0.19444444       0.00000000 </v>
   <v>      -0.36111111      -0.19444444       0.00000000 </v>
   <v>      -0.30555556      -0.19444444       0.00000000 </v>
   <v>      -0.25000000      -0.19444444       0.00000000 </v>
   <v>      -0.19444444      -0.19444444       0.00000000 </v>
   <v>      -0.13888889      -0.19444444       0.00000000 </v>
   <v>      -0.08333333      -0.19444444       0.00000000 </v>
   <v>      -0.02777778      -0.19444444       0.00000000 </v>
   <v>       0.02777778      -0.13888889       0.00000000 </v>
   <v>       0.08333333      -0.13888889       0.00000000 </v>
   <v>       0.13888889      -0.13888889       0.00000000 </v>
   <v>       0.19444444      -0.13888889       0.00000000 </v>
   <v>       0.25000000      -0.13888889       0.00000000 </v>
   <v>       0.30555556      -0.13888889       0.00000000 </v>
   <v>       0.36111111      -0.13888889       0.00000000 </v>
   <v>       0.41666667      -0.13888889       0.00000000 </v>
   <v>       0.47222222      -0.13888889       0.00000000 </v>
   <v>      -0.47222222      -0.13888889       0.00000000 </v>
   <v>      -0.41666667      -0.13888889       0.00000000 </v>
   <v>      -0.36111111      -0.13888889       0.00000000 </v>
   <v>      -0.30555556      -0.13888889       0.00000000 </v>
   <v>      -0.25000000      -0.13888889       0.00000000 </v>
   <v>      -0.19444444      -0.13888889       0.00000000 </v>
   <v>      -0.13888889      -0.13888889       0.00000000 </v>
   <v>      -0.08333333      -0.13888889       0.00000000 </v>
   <v>      -0.02777778      -0.13888889       0.00000000 </v>
   <v>       0.02777778      -0.08333333       0.00000000 </v>
   <v>       0.08333333      -0.08333333       0.00000000 </v>
   <v>       0.13888889      -0.08333333       0.00000000 </v>
   <v>       0.19444444      -0.08333333       0.00000000 </v>
   <v>       0.25000000      -0.08333333       0.00000000 </v>
   <v>       0.30555556      -0.08333333       0.00000000 </v>
   <v>       0.36111111      -0.08333333       0.00000000 </v>
   <v>       0.41666667      -0.08333333       0.00000000 </v>
   <v>       0.47222222      -0.08333333       0.00000000 </v>
   <v>      -0.47222222      -0.08333333       0.00000000 </v>
   <v>      -0.41666667      -0.08333333       0.00000000 </v>
   <v>      -0.36111111      -0.08333333       0.00000000 </v>
   <v>      -0.30555556      -0.08333333       0.00000000 </v>
   <v>      -0.25000000      -0.08333333       0.00000000 </v>
   <v>      -0.19444444      -0.08333333       0.00000000 </v>
   <v>      -0.13888889      -0.08333333       0.00000000 </v>
   <v>      -0.08333333      -0.08333333       0.00000000 </v>
   <v>      -0.02777778      -0.08333333       0.00000000 </v>
   <v>       0.02777778      -0.02777778       0.00000000 </v>
   <v>       0.08333333      -0.02777778       0.00000000 </v>
   <v>       0.13888889      -0.02777778       0.00000000 </v>
   <v>       0.19444444      -0.02777778       0.00000000 </v>
   <v>       0.25000000      -0.02777778       0.00000000 </v>
   <v>       0.30555556      -0.02777778       0.00000000 </v>
   <v>       0.36111111      -0.02777778       0.00000000 </v>
   <v>       0.41666667      -0.02777778       0.00000000 </v>
   <v>       0.47222222      -0.02777778       0.00000000 </v>
   <v>      -0.47222222      -0.02777778       0.00000000 </v>
   <v>      -0.41666667      -0.02777778       0.00000000 </v>
   <v>      -0.36111111      -0.02777778       0.00000000 </v>
   <v>      -0.30555556      -0.02777778       0.00000000 </v>
   <v>      -0.25000000      -0.02777778       0.00000000 </v>
   <v>      -0.19444444      -0.02777778       0.00000000 </v>
   <v>      -0.13888889      -0.02777778       0.00000000 </v>
   <v>      -0.08333333      -0.02777778       0.00000000 </v>
   <v>      -0.02777778      -0.02777778       0.00000000 </v>
  </varray>
  <varray name="weights" >
   <v>       0.00308642 </v>
   <v>       0.00308642 </v>
   <v>       0.00308642 </v>
   <v>       0.00308642 </v>
   <v>       0.00308642 </v>
   <v>       0.00308642 </v>
   <v>       0.00308642 </v>
   <v>       0.00308642 </v>
   <v>       0.00308642 </v>
   <v>       0.00308642 </v>
   <v>       0.00308642 </v>
   <v>       0.00308642 </v>
   <v>       0.00308642 </v>
   <v>       0.00308642 </v>
   <v>       0.00308642 </v>
   <v>       0.00308642 </v>
   <v>       0.00308642 </v>
   <v>       0.00308642 </v>
   <v>       0.00308642 </v>
   <v>       0.00308642 </v>
   <v>       0.00308642 </v>
   <v>       0.00308642 </v>
   <v>       0.00308642 </v>
   <v>       0.00308642 </v>
   <v>       0.00308642 </v>
   <v>       0.00308642 </v>
   <v>       0.00308642 </v>
   <v>       0.00308642 </v>
   <v>       0.00308642 </v>
   <v>       0.00308642 </v>
   <v>       0.00308642 </v>
   <v>       0.00308642 </v>
   <v>       0.00308642 </v>
   <v>       0.00308642 </v>
   <v>       0.00308642 </v>
   <v>       0.00308642 </v>
   <v>       0.00308642 </v>
   <v>       0.00308642 </v>
   <v>       0.00308642 </v>
   <v>       0.00308642 </v>
   <v>       0.00308642 </v>
   <v>       0.00308642 </v>
   <v>       0.00308642 </v>
   <v>       0.00308642 </v>
   <v>       0.00308642 </v>
   <v>       0.00308642 </v>
   <v>       0.00308642 </v>
   <v>       0.00308642 </v>
   <v>       0.00308642 </v>
   <v>       0.00308642 </v>
   <v>       0.00308642 </v>
   <v>       0.00308642 </v>
   <v>       0.00308642 </v>
   <v>       0.00308642 </v>
   <v>       0.00308642 </v>
   <v>       0.00308642 </v>
   <v>       0.00308642 </v>
   <v>       0.00308642 </v>
   <v>       0.00308642 </v>
   <v>       0.00308642 </v>
   <v>       0.00308642 </v>
   <v>       0.00308642 </v>
   <v>       0.00308642 </v>
   <v>       0.00308642 </v>
   <v>       0.00308642 </v>
   <v>       0.00308642 </v>
   <v>       0.00308642 </v>
   <v>       0.00308642 </v>
   <v>       0.00308642 </v>
   <v>       0.00308642 </v>
   <v>       0.00308642 </v>
   <v>       0.00308642 </v>
   <v>       0.00308642 </v>
   <v>       0.00308642 </v>
   <v>       0.00308642 </v>
   <v>       0.00308642 </v>
   <v>       0.00308642 </v>
   <v>       0.00308642 </v>
   <v>       0.00308642 </v>
   <v>       0.00308642 </v>
   <v>       0.00308642 </v>
   <v>       0.00308642 </v>
   <v>       0.00308642 </v>
   <v>       0.00308642 </v>
   <v>       0.00308642 </v>
   <v>       0.00308642 </v>
   <v>       0.00308642 </v>
   <v>       0.00308642 </v>
   <v>       0.00308642 </v>
   <v>       0.00308642 </v>
   <v>       0.00308642 </v>
   <v>       0.00308642 </v>
   <v>       0.00308642 </v>
   <v>       0.00308642 </v>
   <v>       0.00308642 </v>
   <v>       0.00308642 </v>
   <v>       0.00308642 </v>
   <v>       0.00308642 </v>
   <v>       0.00308642 </v>
   <v>       0.00308642 </v>
   <v>       0.00308642 </v>
   <v>       0.00308642 </v>
   <v>       0.00308642 </v>
   <v>       0.00308642 </v>
   <v>       0.00308642 </v>
   <v>       0.00308642 </v>
   <v>       0.00308642 </v>
   <v>       0.00308642 </v>
   <v>       0.00308642 </v>
   <v>       0.00308642 </v>
   <v>       0.00308642 </v>
   <v>       0.00308642 </v>
   <v>       0.00308642 </v>
   <v>       0.00308642 </v>
   <v>       0.00308642 </v>
   <v>       0.00308642 </v>
   <v>       0.00308642 </v>
   <v>       0.00308642 </v>
   <v>       0.00308642 </v>
   <v>       0.00308642 </v>
   <v>       0.00308642 </v>
   <v>       0.00308642 </v>
   <v>       0.00308642 </v>
   <v>       0.00308642 </v>
   <v>       0.00308642 </v>
   <v>       0.00308642 </v>
   <v>       0.00308642 </v>
   <v>       0.00308642 </v>
   <v>       0.00308642 </v>
   <v>       0.00308642 </v>
   <v>       0.00308642 </v>
   <v>       0.00308642 </v>
   <v>       0.00308642 </v>
   <v>       0.00308642 </v>
   <v>       0.00308642 </v>
   <v>       0.00308642 </v>
   <v>       0.00308642 </v>
   <v>       0.00308642 </v>
   <v>       0.00308642 </v>
   <v>       0.00308642 </v>
   <v>       0.00308642 </v>
   <v>       0.00308642 </v>
   <v>       0.00308642 </v>
   <v>       0.00308642 </v>
   <v>       0.00308642 </v>
   <v>       0.00308642 </v>
   <v>       0.00308642 </v>
   <v>       0.00308642 </v>
   <v>       0.00308642 </v>
   <v>       0.00308642 </v>
   <v>       0.00308642 </v>
   <v>       0.00308642 </v>
   <v>       0.00308642 </v>
   <v>       0.00308642 </v>
   <v>       0.00308642 </v>
   <v>       0.00308642 </v>
   <v>       0.00308642 </v>
   <v>       0.00308642 </v>
   <v>       0.00308642 </v>
   <v>       0.00308642 </v>
   <v>       0.00308642 </v>
   <v>       0.00308642 </v>
   <v>       0.00308642 </v>
   <v>       0.00308642 </v>
   <v>       0.00308642 </v>
   <v>       0.00308642 </v>
   <v>       0.00308642 </v>
   <v>       0.00308642 </v>
   <v>       0.00308642 </v>
   <v>       0.00308642 </v>
   <v>       0.00308642 </v>
   <v>       0.00308642 </v>
   <v>       0.00308642 </v>
   <v>       0.00308642 </v>
   <v>       0.00308642 </v>
   <v>       0.00308642 </v>
   <v>       0.00308642 </v>
   <v>       0.00308642 </v>
   <v>       0.00308642 </v>
   <v>       0.00308642 </v>
   <v>       0.00308642 </v>
   <v>       0.00308642 </v>
   <v>       0.00308642 </v>
   <v>       0.00308642 </v>
   <v>       0.00308642 </v>
   <v>       0.00308642 </v>
   <v>       0.00308642 </v>
   <v>       0.00308642 </v>
   <v>       0.00308642 </v>
   <v>       0.00308642 </v>
   <v>       0.00308642 </v>
   <v>       0.00308642 </v>
   <v>       0.00308642 </v>
   <v>       0.00308642 </v>
   <v>       0.00308642 </v>
   <v>       0.00308642 </v>
   <v>       0.00308642 </v>
   <v>       0.00308642 </v>
   <v>       0.00308642 </v>
   <v>       0.00308642 </v>
   <v>       0.00308642 </v>
   <v>       0.00308642 </v>
   <v>       0.00308642 </v>
   <v>       0.00308642 </v>
   <v>       0.00308642 </v>
   <v>       0.00308642 </v>
   <v>       0.00308642 </v>
   <v>       0.00308642 </v>
   <v>       0.00308642 </v>
   <v>       0.00308642 </v>
   <v>       0.00308642 </v>
   <v>       0.00308642 </v>
   <v>       0.00308642 </v>
   <v>       0.00308642 </v>
   <v>       0.00308642 </v>
   <v>       0.00308642 </v>
   <v>       0.00308642 </v>
   <v>       0.00308642 </v>
   <v>       0.00308642 </v>
   <v>       0.00308642 </v>
   <v>       0.00308642 </v>
   <v>       0.00308642 </v>
   <v>       0.00308642 </v>
   <v>       0.00308642 </v>
   <v>       0.00308642 </v>
   <v>       0.00308642 </v>
   <v>       0.00308642 </v>
   <v>       0.00308642 </v>
   <v>       0.00308642 </v>
   <v>       0.00308642 </v>
   <v>       0.00308642 </v>
   <v>       0.00308642 </v>
   <v>       0.00308642 </v>
   <v>       0.00308642 </v>
   <v>       0.00308642 </v>
   <v>       0.00308642 </v>
   <v>       0.00308642 </v>
   <v>       0.00308642 </v>
   <v>       0.00308642 </v>
   <v>       0.00308642 </v>
   <v>       0.00308642 </v>
   <v>       0.00308642 </v>
   <v>       0.00308642 </v>
   <v>       0.00308642 </v>
   <v>       0.00308642 </v>
   <v>       0.00308642 </v>
   <v>       0.00308642 </v>
   <v>       0.00308642 </v>
   <v>       0.00308642 </v>
   <v>       0.00308642 </v>
   <v>       0.00308642 </v>
   <v>       0.00308642 </v>
   <v>       0.00308642 </v>
   <v>       0.00308642 </v>
   <v>       0.00308642 </v>
   <v>       0.00308642 </v>
   <v>       0.00308642 </v>
   <v>       0.00308642 </v>
   <v>       0.00308642 </v>
   <v>       0.00308642 </v>
   <v>       0.00308642 </v>
   <v>       0.00308642 </v>
   <v>       0.00308642 </v>
   <v>       0.00308642 </v>
   <v>       0.00308642 </v>
   <v>       0.00308642 </v>
   <v>       0.00308642 </v>
   <v>       0.00308642 </v>
   <v>       0.00308642 </v>
   <v>       0.00308642 </v>
   <v>       0.00308642 </v>
   <v>       0.00308642 </v>
   <v>       0.00308642 </v>
   <v>       0.00308642 </v>
   <v>       0.00308642 </v>
   <v>       0.00308642 </v>
   <v>       0.00308642 </v>
   <v>       0.00308642 </v>
   <v>       0.00308642 </v>
   <v>       0.00308642 </v>
   <v>       0.00308642 </v>
   <v>       0.00308642 </v>
   <v>       0.00308642 </v>
   <v>       0.00308642 </v>
   <v>       0.00308642 </v>
   <v>       0.00308642 </v>
   <v>       0.00308642 </v>
   <v>       0.00308642 </v>
   <v>       0.00308642 </v>
   <v>       0.00308642 </v>
   <v>       0.00308642 </v>
   <v>       0.00308642 </v>
   <v>       0.00308642 </v>
   <v>       0.00308642 </v>
   <v>       0.00308642 </v>
   <v>       0.00308642 </v>
   <v>       0.00308642 </v>
   <v>       0.00308642 </v>
   <v>       0.00308642 </v>
   <v>       0.00308642 </v>
   <v>       0.00308642 </v>
   <v>       0.00308642 </v>
   <v>       0.00308642 </v>
   <v>       0.00308642 </v>
   <v>       0.00308642 </v>
   <v>       0.00308642 </v>
   <v>       0.00308642 </v>
   <v>       0.00308642 </v>
   <v>       0.00308642 </v>
   <v>       0.00308642 </v>
   <v>       0.00308642 </v>
   <v>       0.00308642 </v>
   <v>       0.00308642 </v>
   <v>       0.00308642 </v>
   <v>       0.00308642 </v>
   <v>       0.00308642 </v>
   <v>       0.00308642 </v>
   <v>       0.00308642 </v>
   <v>       0.00308642 </v>
   <v>       0.00308642 </v>
   <v>       0.00308642 </v>
   <v>       0.00308642 </v>
   <v>       0.00308642 </v>
   <v>       0.00308642 </v>
  </varray>
 </kpoints>
 <parameters>
  <separator name="general" >
   <i type="string" name="SYSTEM">MoTe2 with Spin orbit Phonon calculatio</i>
   <i type="logical" name="LCOMPAT"> F  </i>
  </separator>
  <separator name="electronic" >
   <i type="string" name="PREC">accura</i>
   <i name="ENMAX">    350.00000000</i>
   <i name="ENAUG">    368.79200000</i>
   <i name="EDIFF">      0.00001000</i>
   <i type="int" name="IALGO">    38</i>
   <i type="int" name="IWAVPR">    11</i>
   <i type="int" name="NBANDS">   224</i>
   <i name="NELECT">    144.00000000</i>
   <i type="int" name="TURBO">     0</i>
   <i type="int" name="IRESTART">     0</i>
   <i type="int" name="NREBOOT">     0</i>
   <i type="int" name="NMIN">     0</i>
   <i name="EREF">      0.00000000</i>
   <separator name="electronic smearing" >
    <i type="int" name="ISMEAR">     0</i>
    <i name="SIGMA">      0.05000000</i>
    <i name="KSPACING">      0.50000000</i>
    <i type="logical" name="KGAMMA"> T  </i>
   </separator>
   <separator name="electronic projectors" >
    <i type="logical" name="LREAL"> F  </i>
    <v name="ROPT">      0.00000000      0.00000000</v>
    <i type="int" name="LMAXPAW">  -100</i>
    <i type="int" name="LMAXMIX">     4</i>
    <i type="logical" name="NLSPLINE"> F  </i>
   </separator>
   <separator name="electronic startup" >
    <i type="int" name="ISTART">     0</i>
    <i type="int" name="ICHARG">     1</i>
    <i type="int" name="INIWAV">     1</i>
   </separator>
   <separator name="electronic spin" >
    <i type="int" name="ISPIN">     1</i>
    <i type="logical" name="LNONCOLLINEAR"> T  </i>
    <v name="MAGMOM">      1.00000000      1.00000000      1.00000000      1.00000000      1.00000000      1.00000000      1.00000000      1.00000000      1.00000000      1.00000000      1.00000000      1.00000000      1.00000000      1.00000000      1.00000000      1.00000000      1.00000000      1.00000000      1.00000000      1.00000000
      1.00000000      1.00000000      1.00000000      1.00000000      1.00000000      1.00000000      1.00000000      1.00000000      1.00000000      1.00000000      1.00000000      1.00000000      1.00000000      1.00000000      1.00000000      1.00000000      1.00000000      1.00000000      1.00000000      1.00000000
      1.00000000      1.00000000      1.00000000      1.00000000      1.00000000      1.00000000      1.00000000      1.00000000      1.00000000      1.00000000      1.00000000      1.00000000      1.00000000      1.00000000      1.00000000      1.00000000      1.00000000      1.00000000      1.00000000      1.00000000
      1.00000000      1.00000000      1.00000000      1.00000000      1.00000000      1.00000000      1.00000000      1.00000000      1.00000000      1.00000000      1.00000000      1.00000000</v>
    <i name="NUPDOWN">     -1.00000000</i>
    <i type="logical" name="LSORBIT"> T  </i>
    <v name="SAXIS">      0.00000000      0.00000000      1.00000000</v>
    <i type="logical" name="LSPIRAL"> F  </i>
    <v name="QSPIRAL">      0.00000000      0.00000000      0.00000000</v>
    <i type="logical" name="LZEROZ"> F  </i>
   </separator>
   <separator name="electronic exchange-correlation" >
    <i type="logical" name="LASPH"> F  </i>
    <i type="logical" name="LMETAGGA"> F  </i>
   </separator>
   <separator name="electronic convergence" >
    <i type="int" name="NELM">    60</i>
    <i type="int" name="NELMDL">    -5</i>
    <i type="int" name="NELMIN">     2</i>
    <i name="ENINI">    350.00000000</i>
    <separator name="electronic convergence detail" >
     <i type="logical" name="LDIAG"> T  </i>
     <i type="logical" name="LSUBROT"> F  </i>
     <i name="WEIMIN">      0.00100000</i>
     <i name="EBREAK">      0.00000001</i>
     <i name="DEPER">      0.30000000</i>
     <i type="int" name="NRMM">     4</i>
     <i name="TIME">      0.40000000</i>
    </separator>
   </separator>
   <separator name="electronic mixer" >
    <i name="AMIX">      0.40000000</i>
    <i name="BMIX">      1.00000000</i>
    <i name="AMIN">      0.10000000</i>
    <i name="AMIX_MAG">      1.60000000</i>
    <i name="BMIX_MAG">      1.00000000</i>
    <separator name="electronic mixer details" >
     <i type="int" name="IMIX">     4</i>
     <i type="int" name="MAXMIX">   -45</i>
     <i name="WC">    100.00000000</i>
     <i type="int" name="INIMIX">     1</i>
     <i type="int" name="MIXPRE">     1</i>
     <i type="int" name="MREMOVE">     5</i>
    </separator>
   </separator>
   <separator name="electronic dipolcorrection" >
    <i type="logical" name="LDIPOL"> F  </i>
    <i type="logical" name="LMONO"> F  </i>
    <i type="int" name="IDIPOL">     0</i>
    <i name="EPSILON">      1.00000000</i>
    <v name="DIPOL">   -100.00000000   -100.00000000   -100.00000000</v>
    <i name="EFIELD">      0.00000000</i>
   </separator>
  </separator>
  <separator name="grids" >
   <i type="int" name="NGX">    48</i>
   <i type="int" name="NGY">    80</i>
   <i type="int" name="NGZ">    98</i>
   <i type="int" name="NGXF">    96</i>
   <i type="int" name="NGYF">   160</i>
   <i type="int" name="NGZF">   196</i>
   <i type="logical" name="ADDGRID"> T  </i>
  </separator>
  <separator name="ionic" >
   <i type="int" name="NSW">     1</i>
   <i type="int" name="IBRION">     8</i>
   <i type="int" name="ISIF">     2</i>
   <i name="PSTRESS">      0.00000000</i>
   <i name="EDIFFG">      0.00010000</i>
   <i type="int" name="NFREE">     0</i>
   <i name="POTIM">      0.50000000</i>
   <i name="SMASS">     -3.00000000</i>
   <i name="SCALEE">      1.00000000</i>
  </separator>
  <separator name="ionic md" >
   <i name="TEBEG">      0.00010000</i>
   <i name="TEEND">      0.00010000</i>
   <i type="int" name="NBLOCK">     1</i>
   <i type="int" name="KBLOCK">     1</i>
   <i type="int" name="NPACO">   256</i>
   <i name="APACO">     16.00000000</i>
  </separator>
  <separator name="symmetry" >
   <i type="int" name="ISYM">     0</i>
   <i name="SYMPREC">      0.00001000</i>
  </separator>
  <separator name="dos" >
   <i type="logical" name="LORBIT"> F  </i>
   <v name="RWIGS">     -1.00000000     -1.00000000</v>
   <i type="int" name="NEDOS">   301</i>
   <i name="EMIN">     10.00000000</i>
   <i name="EMAX">    -10.00000000</i>
   <i name="EFERMI">      0.00000000</i>
  </separator>
  <separator name="writing" >
   <i type="int" name="NWRITE">     3</i>
   <i type="logical" name="LWAVE"> F  </i>
   <i type="logical" name="LCHARG"> F  </i>
   <i type="logical" name="LPARD"> F  </i>
   <i type="logical" name="LVTOT"> F  </i>
   <i type="logical" name="LVHAR"> F  </i>
   <i type="logical" name="LELF"> F  </i>
   <i type="logical" name="LOPTICS"> F  </i>
   <v name="STM">      0.00000000      0.00000000      0.00000000      0.00000000      0.00000000      0.00000000      0.00000000</v>
  </separator>
  <separator name="performance" >
   <i type="int" name="NPAR">    32</i>
   <i type="int" name="NSIM">     4</i>
   <i type="int" name="NBLK">    -1</i>
   <i type="logical" name="LPLANE"> T  </i>
   <i type="logical" name="LSCALAPACK"> T  </i>
   <i type="logical" name="LSCAAWARE"> T  </i>
   <i type="logical" name="LSCALU"> F  </i>
   <i type="logical" name="LASYNC"> F  </i>
   <i type="logical" name="LORBITALREAL"> F  </i>
  </separator>
  <separator name="miscellaneous" >
   <i type="int" name="IDIOT">     3</i>
   <i type="logical" name="LMUSIC"> F  </i>
   <v name="POMASS">    127.60000000     95.94000000</v>
   <v name="DARWINR">      0.00000000      0.00000000</v>
   <v name="DARWINV">      1.00000000      1.00000000</v>
   <i type="logical" name="LCORR"> T  </i>
  </separator>
  <i type="logical" name="GGA_COMPAT"> T  </i>
  <i type="logical" name="LBERRY"> F  </i>
  <i type="int" name="ICORELEVEL">     0</i>
  <i type="logical" name="LDAU"> F  </i>
  <i type="int" name="I_CONSTRAINED_M">     0</i>
  <separator name="electronic exchange-correlation" >
   <i type="string" name="GGA">--</i>
   <i type="int" name="VOSKOWN">     0</i>
   <i type="logical" name="LHFCALC"> F  </i>
   <i type="string" name="PRECFOCK"></i>
   <i type="logical" name="LSYMGRAD"> F  </i>
   <i type="logical" name="LHFONE"> F  </i>
   <i type="logical" name="LRHFCALC"> F  </i>
   <i type="logical" name="LTHOMAS"> F  </i>
   <i type="logical" name="LMODELHF"> F  </i>
   <i name="ENCUT4O">     -1.00000000</i>
   <i type="int" name="EXXOEP">     0</i>
   <i type="int" name="FOURORBIT">     0</i>
   <i name="AEXX">      0.00000000</i>
   <i name="HFALPHA">      0.00000000</i>
   <i name="MCALPHA">      0.00000000</i>
   <i name="ALDAX">      1.00000000</i>
   <i name="AGGAX">      1.00000000</i>
   <i name="ALDAC">      1.00000000</i>
   <i name="AGGAC">      1.00000000</i>
   <i type="int" name="NKREDX">     1</i>
   <i type="int" name="NKREDY">     1</i>
   <i type="int" name="NKREDZ">     1</i>
   <i type="logical" name="SHIFTRED"> F  </i>
   <i type="logical" name="ODDONLY"> F  </i>
   <i type="logical" name="EVENONLY"> F  </i>
   <i type="int" name="LMAXFOCK">     0</i>
   <i type="int" name="NMAXFOCKAE">     0</i>
   <i type="logical" name="LFOCKAEDFT"> F  </i>
   <i name="HFSCREEN">      0.00000000</i>
   <i name="HFSCREENC">      0.00000000</i>
   <i type="int" name="NBANDSGWLOW">     0</i>
  </separator>
  <separator name="vdW DFT" >
   <i type="logical" name="LUSE_VDW"> F  </i>
   <i name="Zab_VDW">     -0.84910000</i>
   <i name="PARAM1">      0.12340000</i>
   <i name="PARAM2">      1.00000000</i>
   <i name="PARAM3">      0.00000000</i>
  </separator>
  <separator name="model GW" >
   <i type="int" name="MODEL_GW">     0</i>
   <i name="MODEL_EPS0">     34.93615840</i>
   <i name="MODEL_ALPHA">      1.00000000</i>
  </separator>
  <separator name="linear response parameters" >
   <i type="logical" name="LEPSILON"> F  </i>
   <i type="logical" name="LRPA"> F  </i>
   <i type="logical" name="LNABLA"> F  </i>
   <i type="logical" name="LVEL"> F  </i>
   <i type="int" name="KINTER">     0</i>
   <i name="CSHIFT">      0.10000000</i>
   <i name="OMEGAMAX">     -1.00000000</i>
   <i name="DEG_THRESHOLD">      0.00200000</i>
  </separator>
  <separator name="orbital magnetization" >
   <i type="logical" name="NUCIND"> F  </i>
   <v name="MAGPOS">      0.00000000      0.00000000      0.00000000</v>
   <i type="logical" name="LNICSALL"> T  </i>
   <i type="logical" name="ORBITALMAG"> F  </i>
   <i type="logical" name="LMAGBLOCH"> F  </i>
   <i type="logical" name="LCHIMAG"> F  </i>
   <i type="logical" name="LGAUGE"> T  </i>
   <i type="int" name="MAGATOM">     0</i>
   <v name="MAGDIPOL">      0.00000000      0.00000000      0.00000000</v>
   <v name="AVECCONST">      0.00000000      0.00000000      0.00000000</v>
  </separator>
  <separator name="response functions" >
   <i type="logical" name="LADDER"> F  </i>
   <i type="logical" name="LFXC"> F  </i>
   <i type="logical" name="LHARTREE"> T  </i>
   <i type="int" name="IBSE">     0</i>
   <i type="logical" name="LTCTE"> F  </i>
   <i type="logical" name="LTETE"> F  </i>
   <i type="logical" name="LTRIPLET"> F  </i>
   <i type="logical" name="LFXCEPS"> F  </i>
   <i type="logical" name="LFXHEG"> F  </i>
   <i type="logical" name="L2ORDER"> F  </i>
   <i type="logical" name="LUSEW"> F  </i>
   <i name="ENCUTGW">     -2.00000000</i>
   <i name="ENCUTGWSOFT">     -2.00000000</i>
   <i name="ENCUTLF">     -1.00000000</i>
   <i type="int" name="LMAXMP2">    -1</i>
   <i name="SCISSOR">      0.00000000</i>
   <i type="int" name="NOMEGA">     0</i>
   <i type="int" name="NOMEGAR">     0</i>
   <i type="int" name="NBANDSGW">    -1</i>
   <i type="int" name="NBANDSO">    -1</i>
   <i type="int" name="NBANDSV">    -1</i>
   <i type="int" name="NELM">     1</i>
   <i type="int" name="DIM">     3</i>
   <i type="int" name="ANTIRES">     0</i>
   <i name="OMEGAMAX">    -30.00000000</i>
   <i name="OMEGAMIN">    -30.00000000</i>
   <i name="OMEGATL">   -200.00000000</i>
   <i type="int" name="OMEGAGRID">     0</i>
   <i name="CSHIFT">     -0.10000000</i>
   <i type="logical" name="SELFENERGY"> F  </i>
   <i type="logical" name="LSPECTRAL"> F  </i>
   <i type="logical" name="ODDONLYGW"> F  </i>
   <i type="logical" name="EVENONLYGW"> F  </i>
   <i type="int" name="NKREDLFX">     1</i>
   <i type="int" name="NKREDLFY">     1</i>
   <i type="int" name="NKREDLFZ">     1</i>
   <i type="int" name="MAXMEM">  1800</i>
   <i type="int" name="TELESCOPE">     0</i>
   <i type="int" name="TAUPAR">     1</i>
  </separator>
  <separator name="External order field" >
   <i name="OFIELD_KAPPA">      0.00000000</i>
   <v name="OFIELD_K">      0.00000000      0.00000000      0.00000000</v>
   <i name="OFIELD_Q6_NEAR">      0.00000000</i>
   <i name="OFIELD_Q6_FAR">      0.00000000</i>
   <i name="OFIELD_A">      0.00000000</i>
  </separator>
 </parameters>
 <atominfo>
  <atoms>      24 </atoms>
  <types>       2 </types>
  <array name="atoms" >
   <dimension dim="1">ion</dimension>
   <field type="string">element</field>
   <field type="int">atomtype</field>
   <set>
    <rc><c>Te</c><c>   1</c></rc>
    <rc><c>Te</c><c>   1</c></rc>
    <rc><c>Te</c><c>   1</c></rc>
    <rc><c>Te</c><c>   1</c></rc>
    <rc><c>Te</c><c>   1</c></rc>
    <rc><c>Te</c><c>   1</c></rc>
    <rc><c>Te</c><c>   1</c></rc>
    <rc><c>Te</c><c>   1</c></rc>
    <rc><c>Te</c><c>   1</c></rc>
    <rc><c>Te</c><c>   1</c></rc>
    <rc><c>Te</c><c>   1</c></rc>
    <rc><c>Te</c><c>   1</c></rc>
    <rc><c>Te</c><c>   1</c></rc>
    <rc><c>Te</c><c>   1</c></rc>
    <rc><c>Te</c><c>   1</c></rc>
    <rc><c>Te</c><c>   1</c></rc>
    <rc><c>Mo</c><c>   2</c></rc>
    <rc><c>Mo</c><c>   2</c></rc>
    <rc><c>Mo</c><c>   2</c></rc>
    <rc><c>Mo</c><c>   2</c></rc>
    <rc><c>Mo</c><c>   2</c></rc>
    <rc><c>Mo</c><c>   2</c></rc>
    <rc><c>Mo</c><c>   2</c></rc>
    <rc><c>Mo</c><c>   2</c></rc>
   </set>
  </array>
  <array name="atomtypes" >
   <dimension dim="1">type</dimension>
   <field type="int">atomspertype</field>
   <field type="string">element</field>
   <field>mass</field>
   <field>valence</field>
   <field type="string">pseudopotential</field>
   <set>
    <rc><c>  16</c><c>Te</c><c>    127.60000000</c><c>      6.00000000</c><c>  PAW_PBE Te 08Apr2002                  </c></rc>
    <rc><c>   8</c><c>Mo</c><c>     95.94000000</c><c>      6.00000000</c><c>  PAW_PBE Mo 08Apr2002                  </c></rc>
   </set>
  </array>
 </atominfo>
 <structure name="initialpos" >
  <crystal>
   <varray name="basis" >
    <v>       7.10200000       0.00000000       0.00000000 </v>
    <v>       0.00000000      12.29800000       0.00000000 </v>
    <v>       0.00000000       0.00000000      16.00000000 </v>
   </varray>
   <i name="volume">   1397.44633600 </i>
   <varray name="rec_basis" >
    <v>       0.14080541       0.00000000       0.00000000 </v>
    <v>       0.00000000       0.08131403       0.00000000 </v>
    <v>       0.00000000       0.00000000       0.06250000 </v>
   </varray>
  </crystal>
  <varray name="positions" >
   <v>       0.00000000       0.33332981       0.11282875 </v>
   <v>       0.50000000       0.33332981       0.11282875 </v>
   <v>       0.00000000       0.83332981       0.11282875 </v>
   <v>       0.50000000       0.83332981       0.11282875 </v>
   <v>       0.00000000       0.33332981       0.88717125 </v>
   <v>       0.50000000       0.33332981       0.88717125 </v>
   <v>       0.00000000       0.83332981       0.88717125 </v>
   <v>       0.50000000       0.83332981       0.88717125 </v>
   <v>       0.25000000       0.08332900       0.11282750 </v>
   <v>       0.75000000       0.08332900       0.11282750 </v>
   <v>       0.25000000       0.58332900       0.11282750 </v>
   <v>       0.75000000       0.58332900       0.11282750 </v>
   <v>       0.25000000       0.08332900       0.88717250 </v>
   <v>       0.75000000       0.08332900       0.88717250 </v>
   <v>       0.25000000       0.58332900       0.88717250 </v>
   <v>       0.75000000       0.58332900       0.88717250 </v>
   <v>       0.25000000       0.25000732       0.00000000 </v>
   <v>       0.75000000       0.25000732       0.00000000 </v>
   <v>       0.25000000       0.75000732       0.00000000 </v>
   <v>       0.75000000       0.75000732       0.00000000 </v>
   <v>       0.00000000       0.00000407       0.00000000 </v>
   <v>       0.50000000       0.00000407       0.00000000 </v>
   <v>       0.00000000       0.50000407       0.00000000 </v>
   <v>       0.50000000       0.50000407       0.00000000 </v>
  </varray>
 </structure>
 <calculation>
  <scstep>
   <time name="dav">  196.71  197.01</time>
   <time name="total">  197.42  197.78</time>
   <energy>
    <i name="alphaZ">    101.44629921 </i>
    <i name="ewald">   6781.29317347 </i>
    <i name="hartreedc"> -11908.44860127 </i>
    <i name="XCdc">   -929.10982725 </i>
    <i name="pawpsdc">   5443.33721788 </i>
    <i name="pawaedc">  -4257.95401428 </i>
    <i name="eentropy">     -0.01908008 </i>
    <i name="bandstr">    179.50601923 </i>
    <i name="atom">   5312.41818276 </i>
    <i name="e_fr_energy">    722.46936968 </i>
    <i name="e_wo_entrp">    722.48844976 </i>
    <i name="e_0_energy">    722.47890972 </i>
   </energy>
  </scstep>
  <scstep>
   <time name="dav">  251.04  251.31</time>
   <time name="total">  251.22  251.49</time>
   <energy>
    <i name="e_fr_energy">    -53.48884246 </i>
    <i name="e_wo_entrp">    -53.48765836 </i>
    <i name="e_0_energy">    -53.48825041 </i>
   </energy>
  </scstep>
  <scstep>
   <time name="dav">  229.52  229.71</time>
   <time name="total">  229.68  229.89</time>
   <energy>
    <i name="e_fr_energy">   -136.14622566 </i>
    <i name="e_wo_entrp">   -136.14420392 </i>
    <i name="e_0_energy">   -136.14521479 </i>
   </energy>
  </scstep>
  <scstep>
   <time name="dav">  248.98  249.31</time>
   <time name="total">  249.13  249.67</time>
   <energy>
    <i name="e_fr_energy">   -139.52779744 </i>
    <i name="e_wo_entrp">   -139.52585703 </i>
    <i name="e_0_energy">   -139.52682723 </i>
   </energy>
  </scstep>
  <scstep>
   <time name="dav">  240.01  240.42</time>
   <time name="total">  246.50  246.93</time>
   <energy>
    <i name="e_fr_energy">   -139.60569732 </i>
    <i name="e_wo_entrp">   -139.60375643 </i>
    <i name="e_0_energy">   -139.60472687 </i>
   </energy>
  </scstep>
  <scstep>
   <time name="dav">  197.72  198.22</time>
   <time name="total">  204.63  205.15</time>
   <energy>
    <i name="e_fr_energy">   -109.46874106 </i>
    <i name="e_wo_entrp">   -109.46577784 </i>
    <i name="e_0_energy">   -109.46725945 </i>
   </energy>
  </scstep>
  <scstep>
   <time name="dav">  223.34  223.53</time>
   <time name="total">  230.42  230.67</time>
   <energy>
    <i name="e_fr_energy">   -112.35258752 </i>
    <i name="e_wo_entrp">   -112.35258752 </i>
    <i name="e_0_energy">   -112.35258752 </i>
   </energy>
  </scstep>
  <scstep>
   <time name="dav">  223.08  223.52</time>
   <time name="total">  230.02  230.48</time>
   <energy>
    <i name="e_fr_energy">   -113.86153149 </i>
    <i name="e_wo_entrp">   -113.86153149 </i>
    <i name="e_0_energy">   -113.86153149 </i>
   </energy>
  </scstep>
  <scstep>
   <time name="dav">  211.26  211.70</time>
   <time name="total">  218.15  218.63</time>
   <energy>
    <i name="e_fr_energy">   -122.18868640 </i>
    <i name="e_wo_entrp">   -122.18868640 </i>
    <i name="e_0_energy">   -122.18868640 </i>
   </energy>
  </scstep>
  <scstep>
   <time name="dav">  210.03  210.31</time>
   <time name="total">  216.87  217.17</time>
   <energy>
    <i name="e_fr_energy">   -130.88197458 </i>
    <i name="e_wo_entrp">   -130.88197458 </i>
    <i name="e_0_energy">   -130.88197458 </i>
   </energy>
  </scstep>
  <scstep>
   <time name="dav">  216.57  216.80</time>
   <time name="total">  223.47  223.72</time>
   <energy>
    <i name="e_fr_energy">   -141.46580370 </i>
    <i name="e_wo_entrp">   -141.46580370 </i>
    <i name="e_0_energy">   -141.46580370 </i>
   </energy>
  </scstep>
  <scstep>
   <time name="dav">  230.79  231.07</time>
   <time name="total">  237.69  237.98</time>
   <energy>
    <i name="e_fr_energy">   -144.80372193 </i>
    <i name="e_wo_entrp">   -144.80372193 </i>
    <i name="e_0_energy">   -144.80372193 </i>
   </energy>
  </scstep>
  <scstep>
   <time name="dav">  230.29  230.79</time>
   <time name="total">  237.13  237.68</time>
   <energy>
    <i name="e_fr_energy">   -145.36319912 </i>
    <i name="e_wo_entrp">   -145.36319912 </i>
    <i name="e_0_energy">   -145.36319912 </i>
   </energy>
  </scstep>
  <scstep>
   <time name="dav">  217.92  218.32</time>
   <time name="total">  224.91  225.34</time>
   <energy>
    <i name="e_fr_energy">   -145.38977565 </i>
    <i name="e_wo_entrp">   -145.38977565 </i>
    <i name="e_0_energy">   -145.38977565 </i>
   </energy>
  </scstep>
  <scstep>
   <time name="dav">  216.96  217.13</time>
   <time name="total">  223.85  224.03</time>
   <energy>
    <i name="e_fr_energy">   -145.65343235 </i>
    <i name="e_wo_entrp">   -145.65343235 </i>
    <i name="e_0_energy">   -145.65343235 </i>
   </energy>
  </scstep>
  <scstep>
   <time name="dav">  230.38  230.71</time>
   <time name="total">  237.35  237.71</time>
   <energy>
    <i name="e_fr_energy">   -145.87312446 </i>
    <i name="e_wo_entrp">   -145.87312446 </i>
    <i name="e_0_energy">   -145.87312446 </i>
   </energy>
  </scstep>
  <scstep>
   <time name="dav">  235.57  235.81</time>
   <time name="total">  242.50  242.74</time>
   <energy>
    <i name="e_fr_energy">   -145.92327876 </i>
    <i name="e_wo_entrp">   -145.92327876 </i>
    <i name="e_0_energy">   -145.92327876 </i>
   </energy>
  </scstep>
  <scstep>
   <time name="dav">  231.28  231.49</time>
   <time name="total">  238.27  238.50</time>
   <energy>
    <i name="e_fr_energy">   -145.93587883 </i>
    <i name="e_wo_entrp">   -145.93587883 </i>
    <i name="e_0_energy">   -145.93587883 </i>
   </energy>
  </scstep>
  <scstep>
   <time name="dav">  224.07  224.53</time>
   <time name="total">  231.05  231.53</time>
   <energy>
    <i name="e_fr_energy">   -145.95230015 </i>
    <i name="e_wo_entrp">   -145.95230015 </i>
    <i name="e_0_energy">   -145.95230015 </i>
   </energy>
  </scstep>
  <scstep>
   <time name="dav">  227.21  227.39</time>
   <time name="total">  234.15  234.61</time>
   <energy>
    <i name="e_fr_energy">   -145.97523005 </i>
    <i name="e_wo_entrp">   -145.97523005 </i>
    <i name="e_0_energy">   -145.97523005 </i>
   </energy>
  </scstep>
  <scstep>
   <time name="dav">  238.22  238.42</time>
   <time name="total">  245.23  245.45</time>
   <energy>
    <i name="e_fr_energy">   -145.97848725 </i>
    <i name="e_wo_entrp">   -145.97848725 </i>
    <i name="e_0_energy">   -145.97848725 </i>
   </energy>
  </scstep>
  <scstep>
   <time name="dav">  217.53  217.96</time>
   <time name="total">  224.44  224.91</time>
   <energy>
    <i name="e_fr_energy">   -145.97921555 </i>
    <i name="e_wo_entrp">   -145.97921555 </i>
    <i name="e_0_energy">   -145.97921555 </i>
   </energy>
  </scstep>
  <scstep>
   <time name="dav">  219.54  220.01</time>
   <time name="total">  226.55  227.03</time>
   <energy>
    <i name="e_fr_energy">   -145.97947129 </i>
    <i name="e_wo_entrp">   -145.97947129 </i>
    <i name="e_0_energy">   -145.97947129 </i>
   </energy>
  </scstep>
  <scstep>
   <time name="dav">  206.00  206.11</time>
   <time name="total">  212.97  213.11</time>
   <energy>
    <i name="e_fr_energy">   -145.97990203 </i>
    <i name="e_wo_entrp">   -145.97990203 </i>
    <i name="e_0_energy">   -145.97990203 </i>
   </energy>
  </scstep>
  <scstep>
   <time name="dav">  221.14  221.45</time>
   <time name="total">  228.24  228.58</time>
   <energy>
    <i name="e_fr_energy">   -145.97997123 </i>
    <i name="e_wo_entrp">   -145.97997123 </i>
    <i name="e_0_energy">   -145.97997123 </i>
   </energy>
  </scstep>
  <scstep>
   <time name="dav">  203.31  203.87</time>
   <time name="total">  210.43  211.00</time>
   <energy>
    <i name="e_fr_energy">   -145.98001528 </i>
    <i name="e_wo_entrp">   -145.98001528 </i>
    <i name="e_0_energy">   -145.98001528 </i>
   </energy>
  </scstep>
  <scstep>
   <time name="dav">  208.64  209.05</time>
   <time name="total">  215.68  216.09</time>
   <energy>
    <i name="e_fr_energy">   -145.98017014 </i>
    <i name="e_wo_entrp">   -145.98017014 </i>
    <i name="e_0_energy">   -145.98017014 </i>
   </energy>
  </scstep>
  <scstep>
   <time name="dav">  209.76  209.96</time>
   <time name="total">  216.72  216.94</time>
   <energy>
    <i name="e_fr_energy">   -145.98027587 </i>
    <i name="e_wo_entrp">   -145.98027587 </i>
    <i name="e_0_energy">   -145.98027587 </i>
   </energy>
  </scstep>
  <scstep>
   <time name="dav">  185.94  186.34</time>
   <time name="total">  186.70  187.14</time>
   <energy>
    <i name="alphaZ">    101.44629921 </i>
    <i name="ewald">   6781.29317347 </i>
    <i name="hartreedc"> -11985.84590684 </i>
    <i name="XCdc">   -929.21742187 </i>
    <i name="pawpsdc">  11702.09100151 </i>
    <i name="pawaedc"> -10527.11760771 </i>
    <i name="eentropy">     -0.00000000 </i>
    <i name="bandstr">   -601.04800607 </i>
    <i name="atom">   5312.41818276 </i>
    <i name="e_fr_energy">   -145.98028554 </i>
    <i name="e_wo_entrp">   -145.98028554 </i>
    <i name="e_0_energy">   -145.98028554 </i>
   </energy>
  </scstep>
  <structure>
   <crystal>
    <varray name="basis" >
     <v>       7.10200000       0.00000000       0.00000000 </v>
     <v>       0.00000000      12.29800000       0.00000000 </v>
     <v>       0.00000000       0.00000000      16.00000000 </v>
    </varray>
    <i name="volume">   1397.44633600 </i>
    <varray name="rec_basis" >
     <v>       0.14080541       0.00000000       0.00000000 </v>
     <v>       0.00000000       0.08131403       0.00000000 </v>
     <v>       0.00000000       0.00000000       0.06250000 </v>
    </varray>
   </crystal>
   <varray name="positions" >
    <v>       0.00000000       0.33332981       0.11282875 </v>
    <v>       0.50000000       0.33332981       0.11282875 </v>
    <v>       0.00000000       0.83332981       0.11282875 </v>
    <v>       0.50000000       0.83332981       0.11282875 </v>
    <v>       0.00000000       0.33332981       0.88717125 </v>
    <v>       0.50000000       0.33332981       0.88717125 </v>
    <v>       0.00000000       0.83332981       0.88717125 </v>
    <v>       0.50000000       0.83332981       0.88717125 </v>
    <v>       0.25000000       0.08332900       0.11282750 </v>
    <v>       0.75000000       0.08332900       0.11282750 </v>
    <v>       0.25000000       0.58332900       0.11282750 </v>
    <v>       0.75000000       0.58332900       0.11282750 </v>
    <v>       0.25000000       0.08332900       0.88717250 </v>
    <v>       0.75000000       0.08332900       0.88717250 </v>
    <v>       0.25000000       0.58332900       0.88717250 </v>
    <v>       0.75000000       0.58332900       0.88717250 </v>
    <v>       0.25000000       0.25000732       0.00000000 </v>
    <v>       0.75000000       0.25000732       0.00000000 </v>
    <v>       0.25000000       0.75000732       0.00000000 </v>
    <v>       0.75000000       0.75000732       0.00000000 </v>
    <v>       0.00000000       0.00000407       0.00000000 </v>
    <v>       0.50000000       0.00000407       0.00000000 </v>
    <v>       0.00000000       0.50000407       0.00000000 </v>
    <v>       0.50000000       0.50000407       0.00000000 </v>
   </varray>
  </structure>
  <varray name="forces" >
   <v>       0.00004642      -0.00011789       0.01633345 </v>
   <v>      -0.00004658      -0.00008421       0.01629297 </v>
   <v>       0.00007500      -0.00003054       0.01630840 </v>
   <v>      -0.00007492      -0.00009954       0.01638255 </v>
   <v>       0.00004652      -0.00011777      -0.01633338 </v>
   <v>      -0.00004659      -0.00008398      -0.01629289 </v>
   <v>       0.00007473      -0.00003051      -0.01630872 </v>
   <v>      -0.00007493      -0.00009965      -0.01638246 </v>
   <v>      -0.00005813       0.00012098       0.01627171 </v>
   <v>       0.00005877       0.00005705       0.01632845 </v>
   <v>       0.00003080       0.00013969       0.01633014 </v>
   <v>      -0.00003159       0.00004311       0.01641989 </v>
   <v>      -0.00005827       0.00012095      -0.01627089 </v>
   <v>       0.00005885       0.00005699      -0.01632849 </v>
   <v>       0.00003085       0.00013987      -0.01633068 </v>
   <v>      -0.00003164       0.00004330      -0.01642055 </v>
   <v>      -0.00001109      -0.00022221       0.00000013 </v>
   <v>       0.00001167      -0.00021691       0.00000036 </v>
   <v>      -0.00000525      -0.00016661      -0.00000004 </v>
   <v>       0.00000443      -0.00016425      -0.00000019 </v>
   <v>       0.00003502       0.00020957      -0.00000029 </v>
   <v>      -0.00003544       0.00020549       0.00000013 </v>
   <v>       0.00003307       0.00014654      -0.00000005 </v>
   <v>      -0.00003171       0.00015054       0.00000046 </v>
  </varray>
  <varray name="stress" >
   <v>      -0.13845131       0.00000461       0.00000036 </v>
   <v>       0.00000457      -0.04201996       0.00000134 </v>
   <v>       0.00000007       0.00000129       0.00346260 </v>
  </varray>
  <energy>
   <i name="e_fr_energy">   -145.98028554 </i>
   <i name="e_wo_entrp">   -145.98028554 </i>
   <i name="e_0_energy">     -0.00000000 </i>
  </energy>
  <scstep>
   <time name="total">  187.70  188.20</time>
   <energy>
    <i name="e_fr_energy">   -124.51428965 </i>
    <i name="e_wo_entrp">   -124.51428965 </i>
    <i name="e_0_energy">   -124.51428965 </i>
   </energy>
  </scstep>
  <scstep>
   <time name="total">  155.47  155.97</time>
   <energy>
    <i name="e_fr_energy">   -119.28307239 </i>
    <i name="e_wo_entrp">   -119.28307239 </i>
    <i name="e_0_energy">   -119.28307239 </i>
   </energy>
  </scstep>
  <scstep>
   <time name="total">  151.04  151.15</time>
   <energy>
    <i name="e_fr_energy">   -119.69845104 </i>
    <i name="e_wo_entrp">   -119.69845104 </i>
    <i name="e_0_energy">   -119.69845104 </i>
   </energy>
  </scstep>
  <scstep>
   <time name="total">  145.67  146.26</time>
   <energy>
    <i name="e_fr_energy">   -119.06572625 </i>
    <i name="e_wo_entrp">   -119.06572625 </i>
    <i name="e_0_energy">   -119.06572625 </i>
   </energy>
  </scstep>
  <scstep>
   <time name="total">  147.55  147.75</time>
   <energy>
    <i name="e_fr_energy">   -118.99642688 </i>
    <i name="e_wo_entrp">   -118.99642688 </i>
    <i name="e_0_energy">   -118.99642688 </i>
   </energy>
  </scstep>
  <scstep>
   <time name="total">  154.58  154.94</time>
   <energy>
    <i name="e_fr_energy">   -118.99712293 </i>
    <i name="e_wo_entrp">   -118.99712293 </i>
    <i name="e_0_energy">   -118.99712293 </i>
   </energy>
  </scstep>
  <scstep>
   <time name="total">  186.39  186.58</time>
   <energy>
    <i name="e_fr_energy">   -129.49365159 </i>
    <i name="e_wo_entrp">   -129.49365159 </i>
    <i name="e_0_energy">   -129.49365159 </i>
   </energy>
  </scstep>
  <scstep>
   <time name="total">  154.91  155.09</time>
   <energy>
    <i name="e_fr_energy">   -124.12574444 </i>
    <i name="e_wo_entrp">   -124.12574444 </i>
    <i name="e_0_energy">   -124.12574444 </i>
   </energy>
  </scstep>
  <scstep>
   <time name="total">  151.32  151.45</time>
   <energy>
    <i name="e_fr_energy">   -124.39524282 </i>
    <i name="e_wo_entrp">   -124.39524282 </i>
    <i name="e_0_energy">   -124.39524282 </i>
   </energy>
  </scstep>
  <scstep>
   <time name="total">  145.47  145.96</time>
   <energy>
    <i name="e_fr_energy">   -123.93205877 </i>
    <i name="e_wo_entrp">   -123.93205877 </i>
    <i name="e_0_energy">   -123.93205877 </i>
   </energy>
  </scstep>
  <scstep>
   <time name="total">  147.85  147.95</time>
   <energy>
    <i name="e_fr_energy">   -123.89325122 </i>
    <i name="e_wo_entrp">   -123.89325122 </i>
    <i name="e_0_energy">   -123.89325122 </i>
   </energy>
  </scstep>
  <scstep>
   <time name="total">  151.75  152.28</time>
   <energy>
    <i name="e_fr_energy">   -123.85505446 </i>
    <i name="e_wo_entrp">   -123.85505446 </i>
    <i name="e_0_energy">   -123.85505446 </i>
   </energy>
  </scstep>
  <scstep>
   <time name="total">  154.63  154.76</time>
   <energy>
    <i name="e_fr_energy">   -123.85606654 </i>
    <i name="e_wo_entrp">   -123.85606654 </i>
    <i name="e_0_energy">   -123.85606654 </i>
   </energy>
  </scstep>
  <scstep>
   <time name="total">  187.69  187.91</time>
   <energy>
    <i name="e_fr_energy">   -133.54559473 </i>
    <i name="e_wo_entrp">   -133.54559473 </i>
    <i name="e_0_energy">   -133.54559473 </i>
   </energy>
  </scstep>
  <scstep>
   <time name="total">  154.49  154.87</time>
   <energy>
    <i name="e_fr_energy">   -127.30708847 </i>
    <i name="e_wo_entrp">   -127.30708847 </i>
    <i name="e_0_energy">   -127.30708847 </i>
   </energy>
  </scstep>
  <scstep>
   <time name="total">  149.51  149.69</time>
   <energy>
    <i name="e_fr_energy">   -127.49808217 </i>
    <i name="e_wo_entrp">   -127.49808217 </i>
    <i name="e_0_energy">   -127.49808217 </i>
   </energy>
  </scstep>
  <scstep>
   <time name="total">  145.74  146.10</time>
   <energy>
    <i name="e_fr_energy">   -126.98144723 </i>
    <i name="e_wo_entrp">   -126.98144723 </i>
    <i name="e_0_energy">   -126.98144723 </i>
   </energy>
  </scstep>
  <scstep>
   <time name="total">  146.98  147.19</time>
   <energy>
    <i name="e_fr_energy">   -127.04922679 </i>
    <i name="e_wo_entrp">   -127.04922679 </i>
    <i name="e_0_energy">   -127.04922679 </i>
   </energy>
  </scstep>
  <scstep>
   <time name="total">  147.04  147.59</time>
   <energy>
    <i name="e_fr_energy">   -126.89707295 </i>
    <i name="e_wo_entrp">   -126.89707295 </i>
    <i name="e_0_energy">   -126.89707295 </i>
   </energy>
  </scstep>
  <scstep>
   <time name="total">  149.21  149.35</time>
   <energy>
    <i name="e_fr_energy">   -126.88609276 </i>
    <i name="e_wo_entrp">   -126.88609276 </i>
    <i name="e_0_energy">   -126.88609276 </i>
   </energy>
  </scstep>
  <scstep>
   <time name="total">  186.67  187.21</time>
   <energy>
    <i name="e_fr_energy">   -124.51458298 </i>
    <i name="e_wo_entrp">   -124.51458298 </i>
    <i name="e_0_energy">   -124.51458298 </i>
   </energy>
  </scstep>
  <scstep>
   <time name="total">  155.03  155.37</time>
   <energy>
    <i name="e_fr_energy">   -119.28305865 </i>
    <i name="e_wo_entrp">   -119.28305865 </i>
    <i name="e_0_energy">   -119.28305865 </i>
   </energy>
  </scstep>
  <scstep>
   <time name="total">  150.49  150.68</time>
   <energy>
    <i name="e_fr_energy">   -119.69838005 </i>
    <i name="e_wo_entrp">   -119.69838005 </i>
    <i name="e_0_energy">   -119.69838005 </i>
   </energy>
  </scstep>
  <scstep>
   <time name="total">  145.24  145.81</time>
   <energy>
    <i name="e_fr_energy">   -119.06567470 </i>
    <i name="e_wo_entrp">   -119.06567470 </i>
    <i name="e_0_energy">   -119.06567470 </i>
   </energy>
  </scstep>
  <scstep>
   <time name="total">  146.93  147.37</time>
   <energy>
    <i name="e_fr_energy">   -118.99633955 </i>
    <i name="e_wo_entrp">   -118.99633955 </i>
    <i name="e_0_energy">   -118.99633955 </i>
   </energy>
  </scstep>
  <scstep>
   <time name="total">  153.57  154.17</time>
   <energy>
    <i name="e_fr_energy">   -118.99707298 </i>
    <i name="e_wo_entrp">   -118.99707298 </i>
    <i name="e_0_energy">   -118.99707298 </i>
   </energy>
  </scstep>
  <scstep>
   <time name="total">  187.07  187.46</time>
   <energy>
    <i name="e_fr_energy">   -129.49378905 </i>
    <i name="e_wo_entrp">   -129.49378905 </i>
    <i name="e_0_energy">   -129.49378905 </i>
   </energy>
  </scstep>
  <scstep>
   <time name="total">  154.98  155.13</time>
   <energy>
    <i name="e_fr_energy">   -124.12568369 </i>
    <i name="e_wo_entrp">   -124.12568369 </i>
    <i name="e_0_energy">   -124.12568369 </i>
   </energy>
  </scstep>
  <scstep>
   <time name="total">  151.91  152.28</time>
   <energy>
    <i name="e_fr_energy">   -124.39520307 </i>
    <i name="e_wo_entrp">   -124.39520307 </i>
    <i name="e_0_energy">   -124.39520307 </i>
   </energy>
  </scstep>
  <scstep>
   <time name="total">  145.77  146.26</time>
   <energy>
    <i name="e_fr_energy">   -123.93203004 </i>
    <i name="e_wo_entrp">   -123.93203004 </i>
    <i name="e_0_energy">   -123.93203004 </i>
   </energy>
  </scstep>
  <scstep>
   <time name="total">  148.18  148.53</time>
   <energy>
    <i name="e_fr_energy">   -123.89320589 </i>
    <i name="e_wo_entrp">   -123.89320589 </i>
    <i name="e_0_energy">   -123.89320589 </i>
   </energy>
  </scstep>
  <scstep>
   <time name="total">  152.02  152.46</time>
   <energy>
    <i name="e_fr_energy">   -123.85499701 </i>
    <i name="e_wo_entrp">   -123.85499701 </i>
    <i name="e_0_energy">   -123.85499701 </i>
   </energy>
  </scstep>
  <scstep>
   <time name="total">  154.69  155.48</time>
   <energy>
    <i name="e_fr_energy">   -123.85590233 </i>
    <i name="e_wo_entrp">   -123.85590233 </i>
    <i name="e_0_energy">   -123.85590233 </i>
   </energy>
  </scstep>
  <scstep>
   <time name="total">  186.88  187.14</time>
   <energy>
    <i name="e_fr_energy">   -133.54623959 </i>
    <i name="e_wo_entrp">   -133.54623959 </i>
    <i name="e_0_energy">   -133.54623959 </i>
   </energy>
  </scstep>
  <scstep>
   <time name="total">  154.42  154.92</time>
   <energy>
    <i name="e_fr_energy">   -127.31096427 </i>
    <i name="e_wo_entrp">   -127.31096427 </i>
    <i name="e_0_energy">   -127.31096427 </i>
   </energy>
  </scstep>
  <scstep>
   <time name="total">  148.96  149.28</time>
   <energy>
    <i name="e_fr_energy">   -127.50070308 </i>
    <i name="e_wo_entrp">   -127.50070308 </i>
    <i name="e_0_energy">   -127.50070308 </i>
   </energy>
  </scstep>
  <scstep>
   <time name="total">  145.66  146.15</time>
   <energy>
    <i name="e_fr_energy">   -126.98489839 </i>
    <i name="e_wo_entrp">   -126.98489839 </i>
    <i name="e_0_energy">   -126.98489839 </i>
   </energy>
  </scstep>
  <scstep>
   <time name="total">  147.28  147.45</time>
   <energy>
    <i name="e_fr_energy">   -127.05256480 </i>
    <i name="e_wo_entrp">   -127.05256480 </i>
    <i name="e_0_energy">   -127.05256480 </i>
   </energy>
  </scstep>
  <scstep>
   <time name="total">  146.87  147.24</time>
   <energy>
    <i name="e_fr_energy">   -126.90010773 </i>
    <i name="e_wo_entrp">   -126.90010773 </i>
    <i name="e_0_energy">   -126.90010773 </i>
   </energy>
  </scstep>
  <scstep>
   <time name="total">  149.54  149.83</time>
   <energy>
    <i name="e_fr_energy">   -126.88923608 </i>
    <i name="e_wo_entrp">   -126.88923608 </i>
    <i name="e_0_energy">   -126.88923608 </i>
   </energy>
  </scstep>
  <scstep>
   <time name="total">  187.70  187.87</time>
   <energy>
    <i name="e_fr_energy">   -124.51432059 </i>
    <i name="e_wo_entrp">   -124.51432059 </i>
    <i name="e_0_energy">   -124.51432059 </i>
   </energy>
  </scstep>
  <scstep>
   <time name="total">  154.96  155.15</time>
   <energy>
    <i name="e_fr_energy">   -119.28304852 </i>
    <i name="e_wo_entrp">   -119.28304852 </i>
    <i name="e_0_energy">   -119.28304852 </i>
   </energy>
  </scstep>
  <scstep>
   <time name="total">  150.27  150.63</time>
   <energy>
    <i name="e_fr_energy">   -119.69843564 </i>
    <i name="e_wo_entrp">   -119.69843564 </i>
    <i name="e_0_energy">   -119.69843564 </i>
   </energy>
  </scstep>
  <scstep>
   <time name="total">  145.47  146.01</time>
   <energy>
    <i name="e_fr_energy">   -119.06565080 </i>
    <i name="e_wo_entrp">   -119.06565080 </i>
    <i name="e_0_energy">   -119.06565080 </i>
   </energy>
  </scstep>
  <scstep>
   <time name="total">  146.69  147.17</time>
   <energy>
    <i name="e_fr_energy">   -118.99632170 </i>
    <i name="e_wo_entrp">   -118.99632170 </i>
    <i name="e_0_energy">   -118.99632170 </i>
   </energy>
  </scstep>
  <scstep>
   <time name="total">  152.90  153.46</time>
   <energy>
    <i name="e_fr_energy">   -118.99703822 </i>
    <i name="e_wo_entrp">   -118.99703822 </i>
    <i name="e_0_energy">   -118.99703822 </i>
   </energy>
  </scstep>
  <scstep>
   <time name="total">  187.35  187.68</time>
   <energy>
    <i name="e_fr_energy">   -129.49382824 </i>
    <i name="e_wo_entrp">   -129.49382824 </i>
    <i name="e_0_energy">   -129.49382824 </i>
   </energy>
  </scstep>
  <scstep>
   <time name="total">  155.25  155.40</time>
   <energy>
    <i name="e_fr_energy">   -124.12574413 </i>
    <i name="e_wo_entrp">   -124.12574413 </i>
    <i name="e_0_energy">   -124.12574413 </i>
   </energy>
  </scstep>
  <scstep>
   <time name="total">  152.23  152.49</time>
   <energy>
    <i name="e_fr_energy">   -124.39529751 </i>
    <i name="e_wo_entrp">   -124.39529751 </i>
    <i name="e_0_energy">   -124.39529751 </i>
   </energy>
  </scstep>
  <scstep>
   <time name="total">  146.38  146.66</time>
   <energy>
    <i name="e_fr_energy">   -123.93211203 </i>
    <i name="e_wo_entrp">   -123.93211203 </i>
    <i name="e_0_energy">   -123.93211203 </i>
   </energy>
  </scstep>
  <scstep>
   <time name="total">  147.77  148.02</time>
   <energy>
    <i name="e_fr_energy">   -123.89320708 </i>
    <i name="e_wo_entrp">   -123.89320708 </i>
    <i name="e_0_energy">   -123.89320708 </i>
   </energy>
  </scstep>
  <scstep>
   <time name="total">  152.34  152.47</time>
   <energy>
    <i name="e_fr_energy">   -123.85498757 </i>
    <i name="e_wo_entrp">   -123.85498757 </i>
    <i name="e_0_energy">   -123.85498757 </i>
   </energy>
  </scstep>
  <scstep>
   <time name="total">  155.08  155.45</time>
   <energy>
    <i name="e_fr_energy">   -123.85602464 </i>
    <i name="e_wo_entrp">   -123.85602464 </i>
    <i name="e_0_energy">   -123.85602464 </i>
   </energy>
  </scstep>
  <scstep>
   <time name="total">  187.47  187.67</time>
   <energy>
    <i name="e_fr_energy">   -133.54627034 </i>
    <i name="e_wo_entrp">   -133.54627034 </i>
    <i name="e_0_energy">   -133.54627034 </i>
   </energy>
  </scstep>
  <scstep>
   <time name="total">  154.22  154.55</time>
   <energy>
    <i name="e_fr_energy">   -127.30495938 </i>
    <i name="e_wo_entrp">   -127.30495938 </i>
    <i name="e_0_energy">   -127.30495938 </i>
   </energy>
  </scstep>
  <scstep>
   <time name="total">  149.37  149.78</time>
   <energy>
    <i name="e_fr_energy">   -127.49698339 </i>
    <i name="e_wo_entrp">   -127.49698339 </i>
    <i name="e_0_energy">   -127.49698339 </i>
   </energy>
  </scstep>
  <scstep>
   <time name="total">  145.95  146.08</time>
   <energy>
    <i name="e_fr_energy">   -126.97990639 </i>
    <i name="e_wo_entrp">   -126.97990639 </i>
    <i name="e_0_energy">   -126.97990639 </i>
   </energy>
  </scstep>
  <scstep>
   <time name="total">  146.67  147.03</time>
   <energy>
    <i name="e_fr_energy">   -127.04774467 </i>
    <i name="e_wo_entrp">   -127.04774467 </i>
    <i name="e_0_energy">   -127.04774467 </i>
   </energy>
  </scstep>
  <scstep>
   <time name="total">  147.27  147.37</time>
   <energy>
    <i name="e_fr_energy">   -126.89573955 </i>
    <i name="e_wo_entrp">   -126.89573955 </i>
    <i name="e_0_energy">   -126.89573955 </i>
   </energy>
  </scstep>
  <scstep>
   <time name="total">  149.52  149.73</time>
   <energy>
    <i name="e_fr_energy">   -126.88467922 </i>
    <i name="e_wo_entrp">   -126.88467922 </i>
    <i name="e_0_energy">   -126.88467922 </i>
   </energy>
  </scstep>
  <scstep>
   <time name="total">  187.81  187.98</time>
   <energy>
    <i name="e_fr_energy">   -124.51431866 </i>
    <i name="e_wo_entrp">   -124.51431866 </i>
    <i name="e_0_energy">   -124.51431866 </i>
   </energy>
  </scstep>
  <scstep>
   <time name="total">  155.47  155.66</time>
   <energy>
    <i name="e_fr_energy">   -119.28317549 </i>
    <i name="e_wo_entrp">   -119.28317549 </i>
    <i name="e_0_energy">   -119.28317549 </i>
   </energy>
  </scstep>
  <scstep>
   <time name="total">  150.26  150.73</time>
   <energy>
    <i name="e_fr_energy">   -119.69845454 </i>
    <i name="e_wo_entrp">   -119.69845454 </i>
    <i name="e_0_energy">   -119.69845454 </i>
   </energy>
  </scstep>
  <scstep>
   <time name="total">  145.63  145.76</time>
   <energy>
    <i name="e_fr_energy">   -119.06574501 </i>
    <i name="e_wo_entrp">   -119.06574501 </i>
    <i name="e_0_energy">   -119.06574501 </i>
   </energy>
  </scstep>
  <scstep>
   <time name="total">  146.98  147.25</time>
   <energy>
    <i name="e_fr_energy">   -118.99643012 </i>
    <i name="e_wo_entrp">   -118.99643012 </i>
    <i name="e_0_energy">   -118.99643012 </i>
   </energy>
  </scstep>
  <scstep>
   <time name="total">  152.89  153.72</time>
   <energy>
    <i name="e_fr_energy">   -118.99714201 </i>
    <i name="e_wo_entrp">   -118.99714201 </i>
    <i name="e_0_energy">   -118.99714201 </i>
   </energy>
  </scstep>
  <scstep>
   <time name="total">  187.34  188.19</time>
   <energy>
    <i name="e_fr_energy">   -129.49359149 </i>
    <i name="e_wo_entrp">   -129.49359149 </i>
    <i name="e_0_energy">   -129.49359149 </i>
   </energy>
  </scstep>
  <scstep>
   <time name="total">  154.24  154.71</time>
   <energy>
    <i name="e_fr_energy">   -124.12578727 </i>
    <i name="e_wo_entrp">   -124.12578727 </i>
    <i name="e_0_energy">   -124.12578727 </i>
   </energy>
  </scstep>
  <scstep>
   <time name="total">  151.64  152.17</time>
   <energy>
    <i name="e_fr_energy">   -124.39533295 </i>
    <i name="e_wo_entrp">   -124.39533295 </i>
    <i name="e_0_energy">   -124.39533295 </i>
   </energy>
  </scstep>
  <scstep>
   <time name="total">  145.77  145.94</time>
   <energy>
    <i name="e_fr_energy">   -123.93209086 </i>
    <i name="e_wo_entrp">   -123.93209086 </i>
    <i name="e_0_energy">   -123.93209086 </i>
   </energy>
  </scstep>
  <scstep>
   <time name="total">  147.79  148.39</time>
   <energy>
    <i name="e_fr_energy">   -123.89330944 </i>
    <i name="e_wo_entrp">   -123.89330944 </i>
    <i name="e_0_energy">   -123.89330944 </i>
   </energy>
  </scstep>
  <scstep>
   <time name="total">  151.62  152.19</time>
   <energy>
    <i name="e_fr_energy">   -123.85504962 </i>
    <i name="e_wo_entrp">   -123.85504962 </i>
    <i name="e_0_energy">   -123.85504962 </i>
   </energy>
  </scstep>
  <scstep>
   <time name="total">  154.92  155.43</time>
   <energy>
    <i name="e_fr_energy">   -123.85605973 </i>
    <i name="e_wo_entrp">   -123.85605973 </i>
    <i name="e_0_energy">   -123.85605973 </i>
   </energy>
  </scstep>
  <scstep>
   <time name="total">  187.10  187.86</time>
   <energy>
    <i name="e_fr_energy">   -133.54564434 </i>
    <i name="e_wo_entrp">   -133.54564434 </i>
    <i name="e_0_energy">   -133.54564434 </i>
   </energy>
  </scstep>
  <scstep>
   <time name="total">  154.29  154.52</time>
   <energy>
    <i name="e_fr_energy">   -127.30630689 </i>
    <i name="e_wo_entrp">   -127.30630689 </i>
    <i name="e_0_energy">   -127.30630689 </i>
   </energy>
  </scstep>
  <scstep>
   <time name="total">  149.42  149.69</time>
   <energy>
    <i name="e_fr_energy">   -127.49765350 </i>
    <i name="e_wo_entrp">   -127.49765350 </i>
    <i name="e_0_energy">   -127.49765350 </i>
   </energy>
  </scstep>
  <scstep>
   <time name="total">  145.87  146.00</time>
   <energy>
    <i name="e_fr_energy">   -126.98090861 </i>
    <i name="e_wo_entrp">   -126.98090861 </i>
    <i name="e_0_energy">   -126.98090861 </i>
   </energy>
  </scstep>
  <scstep>
   <time name="total">  146.52  146.83</time>
   <energy>
    <i name="e_fr_energy">   -127.04873310 </i>
    <i name="e_wo_entrp">   -127.04873310 </i>
    <i name="e_0_energy">   -127.04873310 </i>
   </energy>
  </scstep>
  <scstep>
   <time name="total">  147.10  147.21</time>
   <energy>
    <i name="e_fr_energy">   -126.89665573 </i>
    <i name="e_wo_entrp">   -126.89665573 </i>
    <i name="e_0_energy">   -126.89665573 </i>
   </energy>
  </scstep>
  <scstep>
[...]
       <r>     2.7288     0.0000     0.0000 </r>
       <r>     2.7957     0.0000     0.0000 </r>
       <r>     2.8625     0.0000     0.0000 </r>
       <r>     2.9294     0.0000     0.0000 </r>
       <r>     2.9963     0.0000     0.0000 </r>
       <r>     3.0632     0.0000     0.0000 </r>
       <r>     3.1300     0.0000     0.0000 </r>
       <r>     3.1969     0.0000     0.0000 </r>
       <r>     3.2638     0.0000     0.0000 </r>
       <r>     3.3307     0.0000     0.0000 </r>
       <r>     3.3976     0.0000     0.0000 </r>
       <r>     3.4644     0.0000     0.0000 </r>
       <r>     3.5313     0.0000     0.0000 </r>
       <r>     3.5982     0.0000     0.0000 </r>
       <r>     3.6651     0.0000     0.0000 </r>
       <r>     3.7319     0.0000     0.0000 </r>
       <r>     3.7988     0.0000     0.0000 </r>
       <r>     3.8657     0.0000     0.0000 </r>
       <r>     3.9326     0.0000     0.0000 </r>
       <r>     3.9994     0.0000     0.0000 </r>
       <r>     4.0663     0.0000     0.0000 </r>
       <r>     4.1332     0.0000     0.0000 </r>
       <r>     4.2001     0.0000     0.0000 </r>
       <r>     4.2670     0.0000     0.0000 </r>
       <r>     4.3338     0.0000     0.0000 </r>
       <r>     4.4007     0.0000     0.0000 </r>
       <r>     4.4676     0.0000     0.0000 </r>
       <r>     4.5345     0.0000     0.0000 </r>
       <r>     4.6013     0.0000     0.0000 </r>
       <r>     4.6682     0.0000     0.0000 </r>
       <r>     4.7351     0.0000     0.0000 </r>
       <r>     4.8020     0.0000     0.0000 </r>
       <r>     4.8689     0.0000     0.0000 </r>
       <r>     4.9357     0.0000     0.0000 </r>
       <r>     5.0026     0.0000     0.0000 </r>
       <r>     5.0695     0.0000     0.0000 </r>
       <r>     5.1364     0.0000     0.0000 </r>
       <r>     5.2032     0.0000     0.0000 </r>
       <r>     5.2701     0.0000     0.0000 </r>
       <r>     5.3370     0.0000     0.0000 </r>
       <r>     5.4039     0.0000     0.0000 </r>
       <r>     5.4708     0.0000     0.0000 </r>
       <r>     5.5376     0.0000     0.0000 </r>
       <r>     5.6045     0.0000     0.0000 </r>
       <r>     5.6714     0.0000     0.0000 </r>
       <r>     5.7383     0.0000     0.0000 </r>
       <r>     5.8051     0.0000     0.0000 </r>
       <r>     5.8720     0.0000     0.0000 </r>
       <r>     5.9389     0.0000     0.0000 </r>
       <r>     6.0058     0.0000     0.0000 </r>
       <r>     6.0726     0.0000     0.0000 </r>
       <r>     6.1395     0.0000     0.0000 </r>
       <r>     6.2064     0.0000     0.0000 </r>
       <r>     6.2733     0.0000     0.0000 </r>
       <r>     6.3402     0.0000     0.0000 </r>
       <r>     6.4070     0.0000     0.0000 </r>
       <r>     6.4739     0.0000     0.0000 </r>
       <r>     6.5408     0.0000     0.0000 </r>
       <r>     6.6077     0.0000     0.0000 </r>
       <r>     6.6745     0.0000     0.0000 </r>
       <r>     6.7414     0.0000     0.0000 </r>
      </set>
      <set comment="spin 4">
       <r>   -13.3218     0.0000     0.0000 </r>
       <r>   -13.2549     0.0000     0.0000 </r>
       <r>   -13.1880     0.0000     0.0000 </r>
       <r>   -13.1212     0.0000     0.0000 </r>
       <r>   -13.0543     0.0000     0.0000 </r>
       <r>   -12.9874     0.0000     0.0000 </r>
       <r>   -12.9205     0.0000     0.0000 </r>
       <r>   -12.8537     0.0000     0.0000 </r>
       <r>   -12.7868     0.0000     0.0000 </r>
       <r>   -12.7199     0.0000     0.0000 </r>
       <r>   -12.6530     0.0000     0.0000 </r>
       <r>   -12.5862     0.0000     0.0000 </r>
       <r>   -12.5193     0.0000     0.0000 </r>
       <r>   -12.4524     0.0000     0.0000 </r>
       <r>   -12.3855     0.0000     0.0000 </r>
       <r>   -12.3186     0.0000     0.0000 </r>
       <r>   -12.2518     0.0000     0.0000 </r>
       <r>   -12.1849     0.0000     0.0000 </r>
       <r>   -12.1180     0.0000     0.0000 </r>
       <r>   -12.0511     0.0000     0.0000 </r>
       <r>   -11.9843     0.0000     0.0000 </r>
       <r>   -11.9174     0.0000     0.0000 </r>
       <r>   -11.8505     0.0000     0.0000 </r>
       <r>   -11.7836     0.0000     0.0000 </r>
       <r>   -11.7167     0.0000     0.0000 </r>
       <r>   -11.6499     0.0000     0.0000 </r>
       <r>   -11.5830     0.0000     0.0000 </r>
       <r>   -11.5161     0.0000     0.0000 </r>
       <r>   -11.4492     0.0000     0.0000 </r>
       <r>   -11.3824     0.0000     0.0000 </r>
       <r>   -11.3155     0.0000     0.0000 </r>
       <r>   -11.2486     0.0000     0.0000 </r>
       <r>   -11.1817     0.0000     0.0000 </r>
       <r>   -11.1148     0.0000     0.0000 </r>
       <r>   -11.0480     0.0000     0.0000 </r>
       <r>   -10.9811     0.0000     0.0000 </r>
       <r>   -10.9142     0.0000     0.0000 </r>
       <r>   -10.8473     0.0000     0.0000 </r>
       <r>   -10.7805     0.0000     0.0000 </r>
       <r>   -10.7136     0.0000     0.0000 </r>
       <r>   -10.6467     0.0000     0.0000 </r>
       <r>   -10.5798     0.0000     0.0000 </r>
       <r>   -10.5130     0.0000     0.0000 </r>
       <r>   -10.4461     0.0000     0.0000 </r>
       <r>   -10.3792     0.0000     0.0000 </r>
       <r>   -10.3123     0.0000     0.0000 </r>
       <r>   -10.2454     0.0000     0.0000 </r>
       <r>   -10.1786     0.0000     0.0000 </r>
       <r>   -10.1117     0.0000     0.0000 </r>
       <r>   -10.0448     0.0000     0.0000 </r>
       <r>    -9.9779     0.0000     0.0000 </r>
       <r>    -9.9111     0.0000     0.0000 </r>
       <r>    -9.8442     0.0000     0.0000 </r>
       <r>    -9.7773     0.0000     0.0000 </r>
       <r>    -9.7104     0.0000     0.0000 </r>
       <r>    -9.6435     0.0000     0.0000 </r>
       <r>    -9.5767     0.0000     0.0000 </r>
       <r>    -9.5098     0.0000     0.0000 </r>
       <r>    -9.4429     0.0000     0.0000 </r>
       <r>    -9.3760     0.0000     0.0000 </r>
       <r>    -9.3092     0.0000     0.0000 </r>
       <r>    -9.2423     0.0000     0.0000 </r>
       <r>    -9.1754     0.0000     0.0000 </r>
       <r>    -9.1085     0.0000     0.0000 </r>
       <r>    -9.0416     0.0000     0.0000 </r>
       <r>    -8.9748     0.0000     0.0000 </r>
       <r>    -8.9079     0.0000     0.0000 </r>
       <r>    -8.8410     0.0000     0.0000 </r>
       <r>    -8.7741     0.0000     0.0000 </r>
       <r>    -8.7073     0.0000     0.0000 </r>
       <r>    -8.6404     0.0000     0.0000 </r>
       <r>    -8.5735     0.0000     0.0000 </r>
       <r>    -8.5066     0.0000     0.0000 </r>
       <r>    -8.4398     0.0000     0.0000 </r>
       <r>    -8.3729     0.0000     0.0000 </r>
       <r>    -8.3060     0.0000     0.0000 </r>
       <r>    -8.2391     0.0000     0.0000 </r>
       <r>    -8.1722     0.0000     0.0000 </r>
       <r>    -8.1054     0.0000     0.0000 </r>
       <r>    -8.0385     0.0000     0.0000 </r>
       <r>    -7.9716     0.0000     0.0000 </r>
       <r>    -7.9047     0.0000     0.0000 </r>
       <r>    -7.8379     0.0000     0.0000 </r>
       <r>    -7.7710     0.0000     0.0000 </r>
       <r>    -7.7041     0.0000     0.0000 </r>
       <r>    -7.6372     0.0000     0.0000 </r>
       <r>    -7.5703     0.0000     0.0000 </r>
       <r>    -7.5035     0.0000     0.0000 </r>
       <r>    -7.4366     0.0000     0.0000 </r>
       <r>    -7.3697     0.0000     0.0000 </r>
       <r>    -7.3028     0.0000     0.0000 </r>
       <r>    -7.2360     0.0000     0.0000 </r>
       <r>    -7.1691     0.0000     0.0000 </r>
       <r>    -7.1022     0.0000     0.0000 </r>
       <r>    -7.0353     0.0000     0.0000 </r>
       <r>    -6.9684     0.0000     0.0000 </r>
       <r>    -6.9016     0.0000     0.0000 </r>
       <r>    -6.8347     0.0000     0.0000 </r>
       <r>    -6.7678     0.0000     0.0000 </r>
       <r>    -6.7009     0.0000     0.0000 </r>
       <r>    -6.6341     0.0000     0.0000 </r>
       <r>    -6.5672     0.0000     0.0000 </r>
       <r>    -6.5003     0.0000     0.0000 </r>
       <r>    -6.4334     0.0000     0.0000 </r>
       <r>    -6.3666     0.0000     0.0000 </r>
       <r>    -6.2997     0.0000     0.0000 </r>
       <r>    -6.2328     0.0000     0.0000 </r>
       <r>    -6.1659     0.0000     0.0000 </r>
       <r>    -6.0990     0.0000     0.0000 </r>
       <r>    -6.0322     0.0000     0.0000 </r>
       <r>    -5.9653     0.0000     0.0000 </r>
       <r>    -5.8984     0.0000     0.0000 </r>
       <r>    -5.8315     0.0000     0.0000 </r>
       <r>    -5.7647     0.0000     0.0000 </r>
       <r>    -5.6978     0.0000     0.0000 </r>
       <r>    -5.6309     0.0000     0.0000 </r>
       <r>    -5.5640     0.0000     0.0000 </r>
       <r>    -5.4971     0.0000     0.0000 </r>
       <r>    -5.4303     0.0000     0.0000 </r>
       <r>    -5.3634     0.0000     0.0000 </r>
       <r>    -5.2965     0.0000     0.0000 </r>
       <r>    -5.2296     0.0000     0.0000 </r>
       <r>    -5.1628     0.0000     0.0000 </r>
       <r>    -5.0959     0.0000     0.0000 </r>
       <r>    -5.0290     0.0000     0.0000 </r>
       <r>    -4.9621     0.0000     0.0000 </r>
       <r>    -4.8952     0.0000     0.0000 </r>
       <r>    -4.8284     0.0000     0.0000 </r>
       <r>    -4.7615     0.0000     0.0000 </r>
       <r>    -4.6946     0.0000     0.0000 </r>
       <r>    -4.6277     0.0000     0.0000 </r>
       <r>    -4.5609     0.0000     0.0000 </r>
       <r>    -4.4940     0.0000     0.0000 </r>
       <r>    -4.4271     0.0000     0.0000 </r>
       <r>    -4.3602     0.0000     0.0000 </r>
       <r>    -4.2934     0.0000     0.0000 </r>
       <r>    -4.2265     0.0000     0.0000 </r>
       <r>    -4.1596     0.0000     0.0000 </r>
       <r>    -4.0927     0.0000     0.0000 </r>
       <r>    -4.0258     0.0000     0.0000 </r>
       <r>    -3.9590     0.0000     0.0000 </r>
       <r>    -3.8921     0.0000     0.0000 </r>
       <r>    -3.8252     0.0000     0.0000 </r>
       <r>    -3.7583     0.0000     0.0000 </r>
       <r>    -3.6915     0.0000     0.0000 </r>
       <r>    -3.6246     0.0000     0.0000 </r>
       <r>    -3.5577     0.0000     0.0000 </r>
       <r>    -3.4908     0.0000     0.0000 </r>
       <r>    -3.4239     0.0000     0.0000 </r>
       <r>    -3.3571     0.0000     0.0000 </r>
       <r>    -3.2902     0.0000     0.0000 </r>
       <r>    -3.2233     0.0000     0.0000 </r>
       <r>    -3.1564     0.0000     0.0000 </r>
       <r>    -3.0896     0.0000     0.0000 </r>
       <r>    -3.0227     0.0000     0.0000 </r>
       <r>    -2.9558     0.0000     0.0000 </r>
       <r>    -2.8889     0.0000     0.0000 </r>
       <r>    -2.8220     0.0000     0.0000 </r>
       <r>    -2.7552     0.0000     0.0000 </r>
       <r>    -2.6883     0.0000     0.0000 </r>
       <r>    -2.6214     0.0000     0.0000 </r>
       <r>    -2.5545     0.0000     0.0000 </r>
       <r>    -2.4877     0.0000     0.0000 </r>
       <r>    -2.4208     0.0000     0.0000 </r>
       <r>    -2.3539     0.0000     0.0000 </r>
       <r>    -2.2870     0.0000     0.0000 </r>
       <r>    -2.2202     0.0000     0.0000 </r>
       <r>    -2.1533     0.0000     0.0000 </r>
       <r>    -2.0864     0.0000     0.0000 </r>
       <r>    -2.0195     0.0000     0.0000 </r>
       <r>    -1.9526     0.0000     0.0000 </r>
       <r>    -1.8858     0.0000     0.0000 </r>
       <r>    -1.8189     0.0000     0.0000 </r>
       <r>    -1.7520     0.0000     0.0000 </r>
       <r>    -1.6851     0.0000     0.0000 </r>
       <r>    -1.6183     0.0000     0.0000 </r>
       <r>    -1.5514     0.0000     0.0000 </r>
       <r>    -1.4845     0.0000     0.0000 </r>
       <r>    -1.4176     0.0000     0.0000 </r>
       <r>    -1.3507     0.0000     0.0000 </r>
       <r>    -1.2839     0.0000     0.0000 </r>
       <r>    -1.2170     0.0000     0.0000 </r>
       <r>    -1.1501     0.0000     0.0000 </r>
       <r>    -1.0832     0.0000     0.0000 </r>
       <r>    -1.0164     0.0000     0.0000 </r>
       <r>    -0.9495     0.0000     0.0000 </r>
       <r>    -0.8826     0.0000     0.0000 </r>
       <r>    -0.8157     0.0000     0.0000 </r>
       <r>    -0.7488     0.0000     0.0000 </r>
       <r>    -0.6820     0.0000     0.0000 </r>
       <r>    -0.6151     0.0000     0.0000 </r>
       <r>    -0.5482     0.0000     0.0000 </r>
       <r>    -0.4813     0.0000     0.0000 </r>
       <r>    -0.4145     0.0000     0.0000 </r>
       <r>    -0.3476     0.0000     0.0000 </r>
       <r>    -0.2807     0.0000     0.0000 </r>
       <r>    -0.2138     0.0000     0.0000 </r>
       <r>    -0.1470     0.0000     0.0000 </r>
       <r>    -0.0801     0.0000     0.0000 </r>
       <r>    -0.0132     0.0000     0.0000 </r>
       <r>     0.0537     0.0000     0.0000 </r>
       <r>     0.1206     0.0000     0.0000 </r>
       <r>     0.1874     0.0000     0.0000 </r>
       <r>     0.2543     0.0000     0.0000 </r>
       <r>     0.3212     0.0000     0.0000 </r>
       <r>     0.3881     0.0000     0.0000 </r>
       <r>     0.4549     0.0000     0.0000 </r>
       <r>     0.5218     0.0000     0.0000 </r>
       <r>     0.5887     0.0000     0.0000 </r>
       <r>     0.6556     0.0000     0.0000 </r>
       <r>     0.7225     0.0000     0.0000 </r>
       <r>     0.7893     0.0000     0.0000 </r>
       <r>     0.8562     0.0000     0.0000 </r>
       <r>     0.9231     0.0000     0.0000 </r>
       <r>     0.9900     0.0000     0.0000 </r>
       <r>     1.0568     0.0000     0.0000 </r>
       <r>     1.1237     0.0000     0.0000 </r>
       <r>     1.1906     0.0000     0.0000 </r>
       <r>     1.2575     0.0000     0.0000 </r>
       <r>     1.3244     0.0000     0.0000 </r>
       <r>     1.3912     0.0000     0.0000 </r>
       <r>     1.4581     0.0000     0.0000 </r>
       <r>     1.5250     0.0000     0.0000 </r>
       <r>     1.5919     0.0000     0.0000 </r>
       <r>     1.6587     0.0000     0.0000 </r>
       <r>     1.7256     0.0000     0.0000 </r>
       <r>     1.7925     0.0000     0.0000 </r>
       <r>     1.8594     0.0000     0.0000 </r>
       <r>     1.9262     0.0000     0.0000 </r>
       <r>     1.9931     0.0000     0.0000 </r>
       <r>     2.0600     0.0000     0.0000 </r>
       <r>     2.1269     0.0000     0.0000 </r>
       <r>     2.1938     0.0000     0.0000 </r>
       <r>     2.2606     0.0000     0.0000 </r>
       <r>     2.3275     0.0000     0.0000 </r>
       <r>     2.3944     0.0000     0.0000 </r>
       <r>     2.4613     0.0000     0.0000 </r>
       <r>     2.5281     0.0000     0.0000 </r>
       <r>     2.5950     0.0000     0.0000 </r>
       <r>     2.6619     0.0000     0.0000 </r>
       <r>     2.7288     0.0000     0.0000 </r>
       <r>     2.7957     0.0000     0.0000 </r>
       <r>     2.8625     0.0000     0.0000 </r>
       <r>     2.9294     0.0000     0.0000 </r>
       <r>     2.9963     0.0000     0.0000 </r>
       <r>     3.0632     0.0000     0.0000 </r>
       <r>     3.1300     0.0000     0.0000 </r>
       <r>     3.1969     0.0000     0.0000 </r>
       <r>     3.2638     0.0000     0.0000 </r>
       <r>     3.3307     0.0000     0.0000 </r>
       <r>     3.3976     0.0000     0.0000 </r>
       <r>     3.4644     0.0000     0.0000 </r>
       <r>     3.5313     0.0000     0.0000 </r>
       <r>     3.5982     0.0000     0.0000 </r>
       <r>     3.6651     0.0000     0.0000 </r>
       <r>     3.7319     0.0000     0.0000 </r>
       <r>     3.7988     0.0000     0.0000 </r>
       <r>     3.8657     0.0000     0.0000 </r>
       <r>     3.9326     0.0000     0.0000 </r>
       <r>     3.9994     0.0000     0.0000 </r>
       <r>     4.0663     0.0000     0.0000 </r>
       <r>     4.1332     0.0000     0.0000 </r>
       <r>     4.2001     0.0000     0.0000 </r>
       <r>     4.2670     0.0000     0.0000 </r>
       <r>     4.3338     0.0000     0.0000 </r>
       <r>     4.4007     0.0000     0.0000 </r>
       <r>     4.4676     0.0000     0.0000 </r>
       <r>     4.5345     0.0000     0.0000 </r>
       <r>     4.6013     0.0000     0.0000 </r>
       <r>     4.6682     0.0000     0.0000 </r>
       <r>     4.7351     0.0000     0.0000 </r>
       <r>     4.8020     0.0000     0.0000 </r>
       <r>     4.8689     0.0000     0.0000 </r>
       <r>     4.9357     0.0000     0.0000 </r>
       <r>     5.0026     0.0000     0.0000 </r>
       <r>     5.0695     0.0000     0.0000 </r>
       <r>     5.1364     0.0000     0.0000 </r>
       <r>     5.2032     0.0000     0.0000 </r>
       <r>     5.2701     0.0000     0.0000 </r>
       <r>     5.3370     0.0000     0.0000 </r>
       <r>     5.4039     0.0000     0.0000 </r>
       <r>     5.4708     0.0000     0.0000 </r>
       <r>     5.5376     0.0000     0.0000 </r>
       <r>     5.6045     0.0000     0.0000 </r>
       <r>     5.6714     0.0000     0.0000 </r>
       <r>     5.7383     0.0000     0.0000 </r>
       <r>     5.8051     0.0000     0.0000 </r>
       <r>     5.8720     0.0000     0.0000 </r>
       <r>     5.9389     0.0000     0.0000 </r>
       <r>     6.0058     0.0000     0.0000 </r>
       <r>     6.0726     0.0000     0.0000 </r>
       <r>     6.1395     0.0000     0.0000 </r>
       <r>     6.2064     0.0000     0.0000 </r>
       <r>     6.2733     0.0000     0.0000 </r>
       <r>     6.3402     0.0000     0.0000 </r>
       <r>     6.4070     0.0000     0.0000 </r>
       <r>     6.4739     0.0000     0.0000 </r>
       <r>     6.5408     0.0000     0.0000 </r>
       <r>     6.6077     0.0000     0.0000 </r>
       <r>     6.6745     0.0000     0.0000 </r>
       <r>     6.7414     0.0000     0.0000 </r>
      </set>
     </set>
    </array>
   </total>
  </dos>
 </calculation>
 <structure name="finalpos" >
  <crystal>
   <varray name="basis" >
    <v>       7.10200000       0.00000000       0.00000000 </v>
    <v>       0.00000000      12.29800000       0.00000000 </v>
    <v>       0.00000000       0.00000000      16.00000000 </v>
   </varray>
   <i name="volume">   1397.44633600 </i>
   <varray name="rec_basis" >
    <v>       0.14080541       0.00000000       0.00000000 </v>
    <v>       0.00000000       0.08131403       0.00000000 </v>
    <v>       0.00000000       0.00000000       0.06250000 </v>
   </varray>
  </crystal>
  <varray name="positions" >
   <v>       0.00000000       0.33332981       0.11282875 </v>
   <v>       0.50000000       0.33332981       0.11282875 </v>
   <v>       0.00000000       0.83332981       0.11282875 </v>
   <v>       0.50000000       0.83332981       0.11282875 </v>
   <v>       0.00000000       0.33332981       0.88717125 </v>
   <v>       0.50000000       0.33332981       0.88717125 </v>
   <v>       0.00000000       0.83332981       0.88717125 </v>
   <v>       0.50000000       0.83332981       0.88717125 </v>
   <v>       0.25000000       0.08332900       0.11282750 </v>
   <v>       0.75000000       0.08332900       0.11282750 </v>
   <v>       0.25000000       0.58332900       0.11282750 </v>
   <v>       0.75000000       0.58332900       0.11282750 </v>
   <v>       0.25000000       0.08332900       0.88717250 </v>
   <v>       0.75000000       0.08332900       0.88717250 </v>
   <v>       0.25000000       0.58332900       0.88717250 </v>
   <v>       0.75000000       0.58332900       0.88717250 </v>
   <v>       0.25000000       0.25000732       0.00000000 </v>
   <v>       0.75000000       0.25000732       0.00000000 </v>
   <v>       0.25000000       0.75000732       0.00000000 </v>
   <v>       0.75000000       0.75000732       0.00000000 </v>
   <v>       0.00000000       0.00000407       0.00000000 </v>
   <v>       0.50000000       0.00000407       0.00000000 </v>
   <v>       0.00000000       0.50000407       0.00000000 </v>
   <v>       0.50000000       0.50000407       0.00000000 </v>
  </varray>
 </structure>
</modeling>
