 running on  256 total cores
 distrk:  each k-point on  256 cores,    1 groups
 distr:  one band on    8 cores,   32 groups
 using from now: INCAR     
 vasp.5.3.5 31Mar14 (build Mar 18 2017 11:34:20) complex                        
  
 POSCAR found :  2 types and      24 ions
 scaLAPACK will be used

 ----------------------------------------------------------------------------- 
|                                                                             |
|  ADVICE TO THIS USER RUNNING 'VASP/VAMP'   (HEAR YOUR MASTER'S VOICE ...):  |
|                                                                             |
|      You have a (more or less) 'large supercell' and for larger cells       |
|      it might be more efficient to use real space projection opertators     |
|      So try LREAL= Auto  in the INCAR   file.                               |
|      Mind: At the moment your POTCAR file does not contain real space       |
|       projectors, and has to be modified,  BUT if you                       |
|      want to do an extremely  accurate calculation you might also keep the  |
|      reciprocal projection scheme          (i.e. LREAL=.FALSE.)             |
|                                                                             |
 ----------------------------------------------------------------------------- 

 LDA part: xc-table for Pade appr. of Perdew
 POSCAR, INCAR and KPOINTS ok, starting setup
 FFT: planning ...
 WAVECAR not read
 WARNING: chargedensity file is incomplete
 entering main loop
       N       E                     dE             d eps       ncg     rms          rms(c)
DAV:   1     0.722469369677E+03    0.72247E+03   -0.39025E+04145152   0.714E+02
DAV:   2    -0.534888424550E+02   -0.77596E+03   -0.73980E+03201280   0.159E+02
DAV:   3    -0.136146225664E+03   -0.82657E+02   -0.80610E+02179200   0.550E+01
DAV:   4    -0.139527797437E+03   -0.33816E+01   -0.33551E+01200256   0.127E+01
DAV:   5    -0.139605697319E+03   -0.77900E-01   -0.77860E-01192192   0.219E+00    0.498E+01
DAV:   6    -0.109468741064E+03    0.30137E+02   -0.99600E+01147616   0.213E+01    0.250E+01
DAV:   7    -0.112352587523E+03   -0.28838E+01   -0.14664E+01174720   0.134E+01    0.200E+01
DAV:   8    -0.113861531489E+03   -0.15089E+01   -0.30009E+00173504   0.553E+00    0.943E+00
DAV:   9    -0.122188686400E+03   -0.83272E+01   -0.31591E+00160800   0.381E+00    0.592E+00
DAV:  10    -0.130881974585E+03   -0.86933E+01   -0.39617E+00159648   0.400E+00    0.402E+00
DAV:  11    -0.141465803698E+03   -0.10584E+02   -0.10017E+01168320   0.536E+00    0.168E+00
DAV:  12    -0.144803721929E+03   -0.33379E+01   -0.33105E+00182912   0.286E+00    0.100E+00
DAV:  13    -0.145363199125E+03   -0.55948E+00   -0.42183E-01182400   0.112E+00    0.773E-01
DAV:  14    -0.145389775654E+03   -0.26577E-01   -0.11993E-01168160   0.733E-01    0.639E-01
DAV:  15    -0.145653432354E+03   -0.26366E+00   -0.68499E-02168960   0.548E-01    0.444E-01
DAV:  16    -0.145873124455E+03   -0.21969E+00   -0.33544E-02182560   0.312E-01    0.191E-01
DAV:  17    -0.145923278758E+03   -0.50154E-01   -0.65991E-03187328   0.167E-01    0.142E-01
DAV:  18    -0.145935878826E+03   -0.12600E-01   -0.15124E-03183072   0.966E-02    0.925E-02
DAV:  19    -0.145952300148E+03   -0.16421E-01   -0.16508E-03175424   0.946E-02    0.604E-02
DAV:  20    -0.145975230049E+03   -0.22930E-01   -0.36686E-03179872   0.991E-02    0.490E-02
DAV:  21    -0.145978487247E+03   -0.32572E-02   -0.88271E-04189568   0.523E-02    0.284E-02
DAV:  22    -0.145979215553E+03   -0.72831E-03   -0.20213E-04169280   0.295E-02    0.211E-02
DAV:  23    -0.145979471288E+03   -0.25573E-03   -0.76392E-05169312   0.166E-02    0.168E-02
DAV:  24    -0.145979902032E+03   -0.43074E-03   -0.14392E-04155424   0.175E-02    0.111E-02
DAV:  25    -0.145979971225E+03   -0.69193E-04   -0.46377E-05170720   0.105E-02    0.113E-02
DAV:  26    -0.145980015277E+03   -0.44052E-04   -0.10367E-05149600   0.708E-03    0.105E-02
DAV:  27    -0.145980170137E+03   -0.15486E-03   -0.13451E-05156800   0.604E-03    0.642E-03
DAV:  28    -0.145980275873E+03   -0.10574E-03   -0.11986E-05157568   0.477E-03    0.219E-03
DAV:  29    -0.145980285542E+03   -0.96686E-05   -0.74508E-07127008   0.191E-03
   1 F= -.14598029E+03 E0= -.14598029E+03  d E =-.599786E-12  mag=     0.0000     0.0000     0.0000
 Linear response reoptimize wavefunctions to high precision
DAV:   1    -0.145980292867E+03   -0.73252E-05   -0.55495E-07175040   0.147E-03
DAV:   2    -0.145980292869E+03   -0.18372E-08   -0.16761E-08154176   0.345E-04
DAV:   3    -0.145980292869E+03   -0.85493E-10    0.93524E-10109376   0.798E-05
 Linear response DOF=          72
 Linear response progress:
  Degree of freedom:   1/ 72
       N       E                     dE             d eps       ncg     rms          rms(c)
RMM:   1    -0.498057158586E-01   -0.49806E-01    0.40883E-02364580   0.211E-01
RMM:   2    -0.477132289565E-01    0.20925E-02   -0.22089E-03237338   0.504E-02    0.121E-01
RMM:   3    -0.478793804154E-01   -0.16615E-03   -0.49068E-04224534   0.200E-02    0.154E-01
RMM:   4    -0.476262905018E-01    0.25309E-03   -0.20783E-04210917   0.123E-02    0.676E-02
RMM:   5    -0.475985707515E-01    0.27720E-04   -0.20239E-05221511   0.503E-03    0.189E-02
RMM:   6    -0.475988491731E-01   -0.27842E-06   -0.54509E-06234377   0.196E-03    0.948E-03
 force on displaced ion       1 direction 1 :  -8.375   0.000   0.000
 Linear response progress:
  Degree of freedom:   2/ 72
       N       E                     dE             d eps       ncg     rms          rms(c)
RMM:   1    -0.517974606376E-01   -0.51797E-01    0.40424E-02365872   0.211E-01
RMM:   2    -0.496502977773E-01    0.21472E-02   -0.22276E-03235740   0.506E-02    0.120E-01
RMM:   3    -0.497580971285E-01   -0.10780E-03   -0.40235E-04226651   0.184E-02    0.140E-01
RMM:   4    -0.495728235067E-01    0.18527E-03   -0.18053E-04211660   0.114E-02    0.668E-02
RMM:   5    -0.495573004879E-01    0.15523E-04   -0.31784E-05221715   0.579E-03    0.284E-02
RMM:   6    -0.495420217853E-01    0.15279E-04   -0.19404E-05224760   0.375E-03    0.114E-02
RMM:   7    -0.495424266172E-01   -0.40483E-06   -0.34015E-06234977   0.141E-03    0.394E-03
 force on displaced ion       1 direction 2 :   0.000  -8.521   0.027
 Linear response progress:
  Degree of freedom:   3/ 72
       N       E                     dE             d eps       ncg     rms          rms(c)
RMM:   1    -0.534182378902E-01   -0.53418E-01    0.36348E-02367093   0.215E-01
RMM:   2    -0.509228353899E-01    0.24954E-02   -0.23790E-03233606   0.533E-02    0.150E-01
RMM:   3    -0.509992328664E-01   -0.76397E-04   -0.58669E-04224464   0.221E-02    0.164E-01
RMM:   4    -0.507925788923E-01    0.20665E-03   -0.26714E-04212470   0.138E-02    0.853E-02
RMM:   5    -0.508196907142E-01   -0.27112E-04   -0.12209E-04220712   0.987E-03    0.570E-02
RMM:   6    -0.507588291804E-01    0.60862E-04   -0.79052E-05219822   0.765E-03    0.224E-02
RMM:   7    -0.507544371029E-01    0.43921E-05   -0.87725E-06226022   0.261E-03    0.110E-02
 force on displaced ion       1 direction 3 :   0.000   0.032 -10.862
 Linear response progress:
  Degree of freedom:   4/ 72
       N       E                     dE             d eps       ncg     rms          rms(c)
RMM:   1    -0.498058331923E-01   -0.49806E-01    0.40882E-02364584   0.211E-01
RMM:   2    -0.477132234584E-01    0.20926E-02   -0.22088E-03237341   0.504E-02    0.121E-01
RMM:   3    -0.478793520184E-01   -0.16613E-03   -0.49066E-04224538   0.200E-02    0.154E-01
RMM:   4    -0.476262698805E-01    0.25308E-03   -0.20784E-04210937   0.123E-02    0.676E-02
RMM:   5    -0.475985358199E-01    0.27734E-04   -0.20228E-05221505   0.503E-03    0.190E-02
RMM:   6    -0.475988291907E-01   -0.29337E-06   -0.54492E-06234409   0.194E-03    0.948E-03
 force on displaced ion       2 direction 1 :  -8.375  -0.000  -0.000
 Linear response progress:
  Degree of freedom:   5/ 72
       N       E                     dE             d eps       ncg     rms          rms(c)
RMM:   1    -0.517975156195E-01   -0.51798E-01    0.40423E-02365893   0.211E-01
RMM:   2    -0.496502734741E-01    0.21472E-02   -0.22274E-03235746   0.506E-02    0.120E-01
RMM:   3    -0.497580812288E-01   -0.10781E-03   -0.40238E-04226678   0.184E-02    0.140E-01
RMM:   4    -0.495728120147E-01    0.18527E-03   -0.18051E-04211724   0.114E-02    0.668E-02
RMM:   5    -0.495572823569E-01    0.15530E-04   -0.31784E-05221818   0.579E-03    0.284E-02
RMM:   6    -0.495419988038E-01    0.15284E-04   -0.19433E-05225137   0.376E-03    0.114E-02
RMM:   7    -0.495423609311E-01   -0.36213E-06   -0.33967E-06234422   0.143E-03    0.396E-03
 force on displaced ion       2 direction 2 :  -0.000  -8.521   0.027
 Linear response progress:
  Degree of freedom:   6/ 72
       N       E                     dE             d eps       ncg     rms          rms(c)
RMM:   1    -0.534184958366E-01   -0.53418E-01    0.36346E-02367101   0.215E-01
RMM:   2    -0.509243857063E-01    0.24941E-02   -0.23772E-03233604   0.533E-02    0.150E-01
RMM:   3    -0.510002812315E-01   -0.75896E-04   -0.58659E-04224474   0.221E-02    0.164E-01
RMM:   4    -0.507939593564E-01    0.20632E-03   -0.26696E-04212492   0.138E-02    0.853E-02
RMM:   5    -0.508210259180E-01   -0.27067E-04   -0.12196E-04220712   0.987E-03    0.570E-02
RMM:   6    -0.507600430925E-01    0.60983E-04   -0.78582E-05219797   0.764E-03    0.224E-02
RMM:   7    -0.507556944309E-01    0.43487E-05   -0.83251E-06225946   0.260E-03    0.110E-02
 force on displaced ion       2 direction 3 :  -0.000   0.032 -10.861
 Linear response progress:
  Degree of freedom:   7/ 72
       N       E                     dE             d eps       ncg     rms          rms(c)
RMM:   1    -0.498057282378E-01   -0.49806E-01    0.40883E-02364581   0.211E-01
RMM:   2    -0.477132194068E-01    0.20925E-02   -0.22088E-03237330   0.504E-02    0.121E-01
RMM:   3    -0.478793742557E-01   -0.16615E-03   -0.49072E-04224543   0.200E-02    0.154E-01
RMM:   4    -0.476262603205E-01    0.25311E-03   -0.20784E-04210964   0.123E-02    0.677E-02
RMM:   5    -0.475985286789E-01    0.27732E-04   -0.20195E-05221544   0.503E-03    0.190E-02
RMM:   6    -0.475988152861E-01   -0.28661E-06   -0.54792E-06233884   0.194E-03    0.948E-03
 force on displaced ion       3 direction 1 :  -8.375   0.000   0.000
 Linear response progress:
  Degree of freedom:   8/ 72
       N       E                     dE             d eps       ncg     rms          rms(c)
RMM:   1    -0.517975312958E-01   -0.51798E-01    0.40423E-02365890   0.211E-01
RMM:   2    -0.496502976522E-01    0.21472E-02   -0.22274E-03235734   0.506E-02    0.120E-01
RMM:   3    -0.497581190044E-01   -0.10782E-03   -0.40238E-04226697   0.184E-02    0.140E-01
RMM:   4    -0.495728448133E-01    0.18527E-03   -0.18053E-04211752   0.114E-02    0.668E-02
RMM:   5    -0.495572828303E-01    0.15562E-04   -0.31757E-05221822   0.579E-03    0.285E-02
RMM:   6    -0.495419950266E-01    0.15288E-04   -0.19408E-05224249   0.375E-03    0.114E-02
RMM:   7    -0.495424098548E-01   -0.41483E-06   -0.34321E-06234539   0.140E-03    0.394E-03
 force on displaced ion       3 direction 2 :   0.000  -8.521   0.027
 Linear response progress:
  Degree of freedom:   9/ 72
       N       E                     dE             d eps       ncg     rms          rms(c)
RMM:   1    -0.534185081348E-01   -0.53419E-01    0.36346E-02367100   0.215E-01
RMM:   2    -0.509219837536E-01    0.24965E-02   -0.23797E-03233609   0.533E-02    0.150E-01
RMM:   3    -0.509987933559E-01   -0.76810E-04   -0.58672E-04224482   0.221E-02    0.164E-01
RMM:   4    -0.507919625543E-01    0.20683E-03   -0.26723E-04212545   0.138E-02    0.853E-02
RMM:   5    -0.508190978675E-01   -0.27135E-04   -0.12213E-04220700   0.987E-03    0.570E-02
RMM:   6    -0.507582958197E-01    0.60802E-04   -0.79110E-05219789   0.766E-03    0.224E-02
RMM:   7    -0.507538716871E-01    0.44241E-05   -0.88928E-06225866   0.262E-03    0.110E-02
 force on displaced ion       3 direction 3 :   0.000   0.032 -10.861
 Linear response progress:
  Degree of freedom:  10/ 72
       N       E                     dE             d eps       ncg     rms          rms(c)
RMM:   1    -0.498057274650E-01   -0.49806E-01    0.40883E-02364576   0.211E-01
RMM:   2    -0.477132701979E-01    0.20925E-02   -0.22088E-03237329   0.504E-02    0.121E-01
RMM:   3    -0.478793818159E-01   -0.16611E-03   -0.49068E-04224545   0.200E-02    0.154E-01
RMM:   4    -0.476262980045E-01    0.25308E-03   -0.20786E-04211010   0.123E-02    0.677E-02
RMM:   5    -0.475985720466E-01    0.27726E-04   -0.20256E-05221534   0.503E-03    0.190E-02
RMM:   6    -0.475988568037E-01   -0.28476E-06   -0.54245E-06234214   0.194E-03    0.948E-03
 force on displaced ion       4 direction 1 :  -8.375  -0.000  -0.000
 Linear response progress:
  Degree of freedom:  11/ 72
       N       E                     dE             d eps       ncg     rms          rms(c)
RMM:   1    -0.517974365956E-01   -0.51797E-01    0.40424E-02365873   0.211E-01
RMM:   2    -0.496503149061E-01    0.21471E-02   -0.22276E-03235742   0.506E-02    0.120E-01
RMM:   3    -0.497581331805E-01   -0.10782E-03   -0.40239E-04226671   0.184E-02    0.140E-01
RMM:   4    -0.495728363457E-01    0.18530E-03   -0.18051E-04211641   0.114E-02    0.668E-02
RMM:   5    -0.495573237750E-01    0.15513E-04   -0.31795E-05221735   0.579E-03    0.284E-02
RMM:   6    -0.495420198491E-01    0.15304E-04   -0.19420E-05225049   0.375E-03    0.114E-02
RMM:   7    -0.495424238911E-01   -0.40404E-06   -0.34019E-06235086   0.140E-03    0.393E-03
 force on displaced ion       4 direction 2 :  -0.000  -8.521   0.027
 Linear response progress:
  Degree of freedom:  12/ 72
       N       E                     dE             d eps       ncg     rms          rms(c)
RMM:   1    -0.534182577360E-01   -0.53418E-01    0.36348E-02367092   0.215E-01
RMM:   2    -0.509225227569E-01    0.24957E-02   -0.23792E-03233614   0.533E-02    0.150E-01
RMM:   3    -0.509990614000E-01   -0.76539E-04   -0.58670E-04224473   0.221E-02    0.164E-01
RMM:   4    -0.507923634445E-01    0.20670E-03   -0.26714E-04212481   0.138E-02    0.853E-02
RMM:   5    -0.508194932415E-01   -0.27130E-04   -0.12207E-04220714   0.987E-03    0.570E-02
RMM:   6    -0.507586622906E-01    0.60831E-04   -0.79003E-05219819   0.765E-03    0.224E-02
RMM:   7    -0.507542343245E-01    0.44280E-05   -0.88304E-06226050   0.261E-03    0.110E-02
 force on displaced ion       4 direction 3 :  -0.000   0.031 -10.862
 Linear response progress:
  Degree of freedom:  13/ 72
       N       E                     dE             d eps       ncg     rms          rms(c)
RMM:   1    -0.498057152731E-01   -0.49806E-01    0.40883E-02364586   0.211E-01
RMM:   2    -0.477132325517E-01    0.20925E-02   -0.22088E-03237338   0.504E-02    0.121E-01
RMM:   3    -0.478793955053E-01   -0.16616E-03   -0.49070E-04224525   0.200E-02    0.154E-01
RMM:   4    -0.476262794650E-01    0.25312E-03   -0.20784E-04210983   0.123E-02    0.676E-02
RMM:   5    -0.475985400788E-01    0.27739E-04   -0.20238E-05221505   0.503E-03    0.189E-02
RMM:   6    -0.475988423864E-01   -0.30231E-06   -0.54377E-06234093   0.197E-03    0.949E-03
 force on displaced ion       5 direction 1 :  -8.375   0.000  -0.000
 Linear response progress:
  Degree of freedom:  14/ 72
       N       E                     dE             d eps       ncg     rms          rms(c)
RMM:   1    -0.517973351952E-01   -0.51797E-01    0.40425E-02365870   0.211E-01
RMM:   2    -0.496502962006E-01    0.21470E-02   -0.22276E-03235726   0.506E-02    0.120E-01
RMM:   3    -0.497581127281E-01   -0.10782E-03   -0.40237E-04226696   0.184E-02    0.140E-01
RMM:   4    -0.495728510675E-01    0.18526E-03   -0.18052E-04211751   0.114E-02    0.668E-02
RMM:   5    -0.495573036942E-01    0.15547E-04   -0.31782E-05221731   0.580E-03    0.284E-02
RMM:   6    -0.495420078376E-01    0.15296E-04   -0.19433E-05225244   0.376E-03    0.114E-02
RMM:   7    -0.495424177550E-01   -0.40992E-06   -0.34049E-06234765   0.142E-03    0.394E-03
 force on displaced ion       5 direction 2 :   0.000  -8.521  -0.027
 Linear response progress:
  Degree of freedom:  15/ 72
       N       E                     dE             d eps       ncg     rms          rms(c)
RMM:   1    -0.534182340846E-01   -0.53418E-01    0.36348E-02367105   0.215E-01
RMM:   2    -0.508063681079E-01    0.26119E-02   -0.24369E-03233618   0.533E-02    0.150E-01
RMM:   3    -0.509780877986E-01   -0.17172E-03   -0.59654E-04224482   0.221E-02    0.164E-01
RMM:   4    -0.507240995985E-01    0.25399E-03   -0.27182E-04212585   0.138E-02    0.853E-02
RMM:   5    -0.507666575369E-01   -0.42558E-04   -0.12420E-04220713   0.987E-03    0.570E-02
RMM:   6    -0.507116691428E-01    0.54988E-04   -0.81568E-05219796   0.766E-03    0.224E-02
RMM:   7    -0.507017379925E-01    0.99312E-05   -0.12540E-05226150   0.261E-03    0.110E-02
 force on displaced ion       5 direction 3 :  -0.000  -0.032 -10.862
 Linear response progress:
  Degree of freedom:  16/ 72
       N       E                     dE             d eps       ncg     rms          rms(c)
RMM:   1    -0.498058088852E-01   -0.49806E-01    0.40882E-02364589   0.211E-01
RMM:   2    -0.477132208611E-01    0.20926E-02   -0.22088E-03237341   0.504E-02    0.121E-01
RMM:   3    -0.478793608157E-01   -0.16614E-03   -0.49069E-04224540   0.200E-02    0.154E-01
RMM:   4    -0.476262933470E-01    0.25307E-03   -0.20785E-04210980   0.123E-02    0.676E-02
RMM:   5    -0.475985408450E-01    0.27753E-04   -0.20273E-05221495   0.504E-03    0.190E-02
RMM:   6    -0.475988236348E-01   -0.28279E-06   -0.54240E-06234115   0.197E-03    0.948E-03
 force on displaced ion       6 direction 1 :  -8.375  -0.000   0.000
 Linear response progress:
  Degree of freedom:  17/ 72
       N       E                     dE             d eps       ncg     rms          rms(c)
RMM:   1    -0.517974340388E-01   -0.51797E-01    0.40424E-02365886   0.211E-01
RMM:   2    -0.496502763420E-01    0.21472E-02   -0.22274E-03235728   0.506E-02    0.120E-01
RMM:   3    -0.497580772889E-01   -0.10780E-03   -0.40237E-04226718   0.184E-02    0.140E-01
RMM:   4    -0.495727828751E-01    0.18529E-03   -0.18053E-04211748   0.114E-02    0.668E-02
RMM:   5    -0.495572735810E-01    0.15509E-04   -0.31803E-05221819   0.579E-03    0.284E-02
RMM:   6    -0.495419928751E-01    0.15281E-04   -0.19439E-05225176   0.376E-03    0.114E-02
RMM:   7    -0.495423703143E-01   -0.37744E-06   -0.34166E-06234698   0.140E-03    0.393E-03
 force on displaced ion       6 direction 2 :  -0.000  -8.521  -0.027
 Linear response progress:
  Degree of freedom:  18/ 72
       N       E                     dE             d eps       ncg     rms          rms(c)
RMM:   1    -0.534184950077E-01   -0.53418E-01    0.36346E-02367099   0.215E-01
RMM:   2    -0.508059794144E-01    0.26125E-02   -0.24371E-03233605   0.533E-02    0.150E-01
RMM:   3    -0.509778865295E-01   -0.17191E-03   -0.59652E-04224483   0.221E-02    0.164E-01
RMM:   4    -0.507238343881E-01    0.25405E-03   -0.27194E-04212577   0.138E-02    0.853E-02
RMM:   5    -0.507663657782E-01   -0.42531E-04   -0.12421E-04220703   0.987E-03    0.570E-02
RMM:   6    -0.507113833240E-01    0.54982E-04   -0.81606E-05219766   0.765E-03    0.224E-02
RMM:   7    -0.507014644760E-01    0.99188E-05   -0.12509E-05226064   0.261E-03    0.110E-02
 force on displaced ion       6 direction 3 :   0.000  -0.032 -10.861
 Linear response progress:
  Degree of freedom:  19/ 72
       N       E                     dE             d eps       ncg     rms          rms(c)
RMM:   1    -0.498057283808E-01   -0.49806E-01    0.40883E-02364583   0.211E-01
RMM:   2    -0.477132174477E-01    0.20925E-02   -0.22089E-03237340   0.504E-02    0.121E-01
RMM:   3    -0.478793247348E-01   -0.16611E-03   -0.49071E-04224548   0.200E-02    0.154E-01
RMM:   4    -0.476262941601E-01    0.25303E-03   -0.20781E-04210844   0.123E-02    0.677E-02
RMM:   5    -0.475985252465E-01    0.27769E-04   -0.20220E-05221542   0.503E-03    0.189E-02
RMM:   6    -0.475988290709E-01   -0.30382E-06   -0.54273E-06234040   0.196E-03    0.949E-03
 force on displaced ion       7 direction 1 :  -8.375   0.000  -0.000
 Linear response progress:
  Degree of freedom:  20/ 72
       N       E                     dE             d eps       ncg     rms          rms(c)
RMM:   1    -0.517974880173E-01   -0.51797E-01    0.40423E-02365884   0.211E-01
RMM:   2    -0.496502944567E-01    0.21472E-02   -0.22274E-03235721   0.506E-02    0.120E-01
RMM:   3    -0.497581156551E-01   -0.10782E-03   -0.40238E-04226666   0.184E-02    0.140E-01
RMM:   4    -0.495728229056E-01    0.18529E-03   -0.18056E-04211812   0.114E-02    0.668E-02
RMM:   5    -0.495572794979E-01    0.15543E-04   -0.31781E-05221845   0.579E-03    0.284E-02
RMM:   6    -0.495420032993E-01    0.15276E-04   -0.19406E-05224269   0.375E-03    0.114E-02
RMM:   7    -0.495424053342E-01   -0.40203E-06   -0.33962E-06234643   0.140E-03    0.393E-03
 force on displaced ion       7 direction 2 :   0.000  -8.521  -0.027
 Linear response progress:
  Degree of freedom:  21/ 72
       N       E                     dE             d eps       ncg     rms          rms(c)
RMM:   1    -0.534185040232E-01   -0.53419E-01    0.36346E-02367100   0.215E-01
RMM:   2    -0.508065252024E-01    0.26120E-02   -0.24371E-03233619   0.533E-02    0.150E-01
RMM:   3    -0.509781933219E-01   -0.17167E-03   -0.59662E-04224487   0.221E-02    0.164E-01
RMM:   4    -0.507243019921E-01    0.25389E-03   -0.27253E-04212588   0.139E-02    0.853E-02
RMM:   5    -0.507668630577E-01   -0.42561E-04   -0.12469E-04220692   0.987E-03    0.570E-02
RMM:   6    -0.507118178808E-01    0.55045E-04   -0.81945E-05219755   0.765E-03    0.224E-02
RMM:   7    -0.507019218306E-01    0.98961E-05   -0.13107E-05226051   0.262E-03    0.110E-02
 force on displaced ion       7 direction 3 :  -0.000  -0.032 -10.861
 Linear response progress:
  Degree of freedom:  22/ 72
       N       E                     dE             d eps       ncg     rms          rms(c)
RMM:   1    -0.498057462480E-01   -0.49806E-01    0.40883E-02364582   0.211E-01
RMM:   2    -0.477132708021E-01    0.20925E-02   -0.22088E-03237341   0.504E-02    0.121E-01
RMM:   3    -0.478793871281E-01   -0.16612E-03   -0.49069E-04224548   0.200E-02    0.154E-01
RMM:   4    -0.476263062653E-01    0.25308E-03   -0.20784E-04210948   0.123E-02    0.676E-02
RMM:   5    -0.475985367665E-01    0.27769E-04   -0.20221E-05221520   0.503E-03    0.189E-02
RMM:   6    -0.475988615182E-01   -0.32475E-06   -0.54550E-06234169   0.195E-03    0.948E-03
 force on displaced ion       8 direction 1 :  -8.375  -0.000   0.000
 Linear response progress:
  Degree of freedom:  23/ 72
       N       E                     dE             d eps       ncg     rms          rms(c)
RMM:   1    -0.517973886449E-01   -0.51797E-01    0.40425E-02365867   0.211E-01
RMM:   2    -0.496503138270E-01    0.21471E-02   -0.22276E-03235726   0.506E-02    0.120E-01
RMM:   3    -0.497581181486E-01   -0.10780E-03   -0.40240E-04226625   0.184E-02    0.140E-01
RMM:   4    -0.495728241422E-01    0.18529E-03   -0.18056E-04211797   0.114E-02    0.668E-02
RMM:   5    -0.495573322436E-01    0.15492E-04   -0.31794E-05221729   0.579E-03    0.284E-02
RMM:   6    -0.495420130786E-01    0.15319E-04   -0.19437E-05224803   0.375E-03    0.114E-02
RMM:   7    -0.495424298295E-01   -0.41675E-06   -0.33598E-06235139   0.139E-03    0.394E-03
 force on displaced ion       8 direction 2 :  -0.000  -8.521  -0.027
 Linear response progress:
  Degree of freedom:  24/ 72
       N       E                     dE             d eps       ncg     rms          rms(c)
RMM:   1    -0.534182582672E-01   -0.53418E-01    0.36348E-02367096   0.215E-01
RMM:   2    -0.508065152010E-01    0.26117E-02   -0.24371E-03233617   0.533E-02    0.150E-01
RMM:   3    -0.509781464858E-01   -0.17163E-03   -0.59660E-04224482   0.221E-02    0.164E-01
RMM:   4    -0.507243121279E-01    0.25383E-03   -0.27250E-04212502   0.138E-02    0.853E-02
RMM:   5    -0.507668054708E-01   -0.42493E-04   -0.12475E-04220708   0.987E-03    0.570E-02
RMM:   6    -0.507118101049E-01    0.54995E-04   -0.82033E-05219790   0.765E-03    0.224E-02
RMM:   7    -0.507019444335E-01    0.98657E-05   -0.13161E-05226214   0.261E-03    0.110E-02
 force on displaced ion       8 direction 3 :   0.000  -0.031 -10.862
 Linear response progress:
  Degree of freedom:  25/ 72
       N       E                     dE             d eps       ncg     rms          rms(c)
RMM:   1    -0.498054926795E-01   -0.49805E-01    0.40886E-02364585   0.211E-01
RMM:   2    -0.477131903462E-01    0.20923E-02   -0.22088E-03237334   0.504E-02    0.121E-01
RMM:   3    -0.478793470924E-01   -0.16616E-03   -0.49066E-04224517   0.200E-02    0.154E-01
RMM:   4    -0.476262726743E-01    0.25307E-03   -0.20784E-04210975   0.123E-02    0.677E-02
RMM:   5    -0.475985136038E-01    0.27759E-04   -0.20193E-05221474   0.503E-03    0.190E-02
RMM:   6    -0.475988220360E-01   -0.30843E-06   -0.54427E-06233897   0.195E-03    0.948E-03
 force on displaced ion       9 direction 1 :  -8.375  -0.000  -0.000
 Linear response progress:
  Degree of freedom:  26/ 72
       N       E                     dE             d eps       ncg     rms          rms(c)
RMM:   1    -0.517978619756E-01   -0.51798E-01    0.40419E-02365884   0.211E-01
RMM:   2    -0.496502926765E-01    0.21476E-02   -0.22275E-03235739   0.506E-02    0.120E-01
RMM:   3    -0.497581321795E-01   -0.10784E-03   -0.40239E-04226661   0.184E-02    0.140E-01
RMM:   4    -0.495728140329E-01    0.18532E-03   -0.18052E-04211788   0.114E-02    0.668E-02
RMM:   5    -0.495573225741E-01    0.15491E-04   -0.31798E-05221841   0.579E-03    0.284E-02
RMM:   6    -0.495419890618E-01    0.15334E-04   -0.19432E-05225132   0.376E-03    0.114E-02
RMM:   7    -0.495424127457E-01   -0.42368E-06   -0.34267E-06234984   0.141E-03    0.393E-03
 force on displaced ion       9 direction 2 :  -0.000  -8.521   0.027
 Linear response progress:
  Degree of freedom:  27/ 72
       N       E                     dE             d eps       ncg     rms          rms(c)
RMM:   1    -0.534186307488E-01   -0.53419E-01    0.36343E-02367092   0.215E-01
RMM:   2    -0.509233486530E-01    0.24953E-02   -0.23784E-03233597   0.533E-02    0.150E-01
RMM:   3    -0.509995222445E-01   -0.76174E-04   -0.58672E-04224473   0.221E-02    0.164E-01
RMM:   4    -0.507930407060E-01    0.20648E-03   -0.26696E-04212518   0.138E-02    0.853E-02
RMM:   5    -0.508201447453E-01   -0.27104E-04   -0.12200E-04220716   0.987E-03    0.570E-02
RMM:   6    -0.507591914632E-01    0.60953E-04   -0.78780E-05219797   0.765E-03    0.224E-02
RMM:   7    -0.507548316038E-01    0.43599E-05   -0.85871E-06226000   0.261E-03    0.110E-02
 force on displaced ion       9 direction 3 :  -0.000   0.031 -10.861
 Linear response progress:
  Degree of freedom:  28/ 72
       N       E                     dE             d eps       ncg     rms          rms(c)
RMM:   1    -0.498056334207E-01   -0.49806E-01    0.40885E-02364591   0.211E-01
RMM:   2    -0.477131842055E-01    0.20924E-02   -0.22088E-03237337   0.504E-02    0.121E-01
RMM:   3    -0.478793830469E-01   -0.16620E-03   -0.49064E-04224516   0.200E-02    0.154E-01
RMM:   4    -0.476262629975E-01    0.25312E-03   -0.20782E-04210879   0.123E-02    0.677E-02
RMM:   5    -0.475985206409E-01    0.27742E-04   -0.20224E-05221477   0.503E-03    0.189E-02
RMM:   6    -0.475988311089E-01   -0.31047E-06   -0.53974E-06233673   0.194E-03    0.948E-03
 force on displaced ion      10 direction 1 :  -8.375   0.000   0.000
 Linear response progress:
  Degree of freedom:  29/ 72
       N       E                     dE             d eps       ncg     rms          rms(c)
RMM:   1    -0.517976798421E-01   -0.51798E-01    0.40421E-02365887   0.211E-01
RMM:   2    -0.496502656386E-01    0.21474E-02   -0.22276E-03235748   0.506E-02    0.120E-01
RMM:   3    -0.497580981034E-01   -0.10783E-03   -0.40241E-04226655   0.184E-02    0.140E-01
RMM:   4    -0.495728073175E-01    0.18529E-03   -0.18053E-04211711   0.114E-02    0.668E-02
RMM:   5    -0.495573182246E-01    0.15489E-04   -0.31780E-05221782   0.580E-03    0.284E-02
RMM:   6    -0.495419786969E-01    0.15340E-04   -0.19436E-05225057   0.376E-03    0.114E-02
RMM:   7    -0.495424010018E-01   -0.42230E-06   -0.34289E-06234723   0.142E-03    0.395E-03
 force on displaced ion      10 direction 2 :   0.000  -8.521   0.027
 Linear response progress:
  Degree of freedom:  30/ 72
       N       E                     dE             d eps       ncg     rms          rms(c)
RMM:   1    -0.534187166596E-01   -0.53419E-01    0.36343E-02367090   0.215E-01
RMM:   2    -0.509261171328E-01    0.24926E-02   -0.23753E-03233625   0.533E-02    0.150E-01
RMM:   3    -0.510013874346E-01   -0.75270E-04   -0.58659E-04224462   0.221E-02    0.164E-01
RMM:   4    -0.507954477443E-01    0.20594E-03   -0.26649E-04212506   0.138E-02    0.853E-02
RMM:   5    -0.508225159392E-01   -0.27068E-04   -0.12174E-04220733   0.987E-03    0.570E-02
RMM:   6    -0.507613749643E-01    0.61141E-04   -0.78013E-05219806   0.765E-03    0.224E-02
RMM:   7    -0.507570880942E-01    0.42869E-05   -0.75707E-06226060   0.260E-03    0.110E-02
 force on displaced ion      10 direction 3 :   0.000   0.031 -10.862
 Linear response progress:
  Degree of freedom:  31/ 72
       N       E                     dE             d eps       ncg     rms          rms(c)
RMM:   1    -0.498057532590E-01   -0.49806E-01    0.40884E-02364590   0.211E-01
RMM:   2    -0.477132154215E-01    0.20925E-02   -0.22088E-03237330   0.504E-02    0.121E-01
RMM:   3    -0.478794134670E-01   -0.16620E-03   -0.49064E-04224542   0.200E-02    0.154E-01
RMM:   4    -0.476262728588E-01    0.25314E-03   -0.20781E-04210838   0.123E-02    0.677E-02
RMM:   5    -0.475985593401E-01    0.27714E-04   -0.20225E-05221380   0.503E-03    0.189E-02
RMM:   6    -0.475988744704E-01   -0.31513E-06   -0.54301E-06234737   0.196E-03    0.948E-03
 force on displaced ion      11 direction 1 :  -8.375   0.000   0.000
 Linear response progress:
  Degree of freedom:  32/ 72
       N       E                     dE             d eps       ncg     rms          rms(c)
RMM:   1    -0.517977440015E-01   -0.51798E-01    0.40421E-02365888   0.211E-01
RMM:   2    -0.496503248840E-01    0.21474E-02   -0.22275E-03235742   0.506E-02    0.120E-01
RMM:   3    -0.497581810982E-01   -0.10786E-03   -0.40238E-04226725   0.184E-02    0.140E-01
RMM:   4    -0.495728650672E-01    0.18532E-03   -0.18053E-04211815   0.114E-02    0.668E-02
RMM:   5    -0.495573558656E-01    0.15509E-04   -0.31777E-05221862   0.579E-03    0.285E-02
RMM:   6    -0.495420469294E-01    0.15309E-04   -0.19430E-05225039   0.375E-03    0.114E-02
RMM:   7    -0.495424584408E-01   -0.41151E-06   -0.34131E-06234983   0.141E-03    0.393E-03
 force on displaced ion      11 direction 2 :   0.000  -8.521   0.027
 Linear response progress:
  Degree of freedom:  33/ 72
       N       E                     dE             d eps       ncg     rms          rms(c)
RMM:   1    -0.534187393915E-01   -0.53419E-01    0.36343E-02367089   0.215E-01
RMM:   2    -0.509218271686E-01    0.24969E-02   -0.23799E-03233614   0.533E-02    0.150E-01
RMM:   3    -0.509985757285E-01   -0.76749E-04   -0.58664E-04224469   0.221E-02    0.164E-01
RMM:   4    -0.507917371677E-01    0.20684E-03   -0.26718E-04212467   0.138E-02    0.853E-02
RMM:   5    -0.508188972863E-01   -0.27160E-04   -0.12206E-04220693   0.987E-03    0.570E-02
RMM:   6    -0.507580540983E-01    0.60843E-04   -0.79070E-05219770   0.765E-03    0.224E-02
RMM:   7    -0.507536363634E-01    0.44177E-05   -0.88532E-06225920   0.261E-03    0.110E-02
 force on displaced ion      11 direction 3 :   0.000   0.031 -10.861
 Linear response progress:
  Degree of freedom:  34/ 72
       N       E                     dE             d eps       ncg     rms          rms(c)
RMM:   1    -0.498056670866E-01   -0.49806E-01    0.40885E-02364586   0.211E-01
RMM:   2    -0.477132303052E-01    0.20924E-02   -0.22088E-03237334   0.504E-02    0.121E-01
RMM:   3    -0.478794225167E-01   -0.16619E-03   -0.49067E-04224535   0.200E-02    0.154E-01
RMM:   4    -0.476262980645E-01    0.25312E-03   -0.20781E-04210841   0.123E-02    0.677E-02
RMM:   5    -0.475985692690E-01    0.27729E-04   -0.20229E-05221381   0.503E-03    0.189E-02
RMM:   6    -0.475988696615E-01   -0.30039E-06   -0.54326E-06234751   0.196E-03    0.949E-03
 force on displaced ion      12 direction 1 :  -8.376  -0.000  -0.000
 Linear response progress:
  Degree of freedom:  35/ 72
       N       E                     dE             d eps       ncg     rms          rms(c)
RMM:   1    -0.517978989509E-01   -0.51798E-01    0.40419E-02365886   0.211E-01
RMM:   2    -0.496503071363E-01    0.21476E-02   -0.22276E-03235733   0.506E-02    0.120E-01
RMM:   3    -0.497581275278E-01   -0.10782E-03   -0.40237E-04226683   0.184E-02    0.140E-01
RMM:   4    -0.495728588229E-01    0.18527E-03   -0.18051E-04211733   0.114E-02    0.668E-02
RMM:   5    -0.495573600423E-01    0.15499E-04   -0.31787E-05221703   0.579E-03    0.284E-02
RMM:   6    -0.495420233929E-01    0.15337E-04   -0.19433E-05225116   0.375E-03    0.114E-02
RMM:   7    -0.495424534016E-01   -0.43001E-06   -0.34044E-06235208   0.139E-03    0.393E-03
 force on displaced ion      12 direction 2 :  -0.000  -8.521   0.027
 Linear response progress:
  Degree of freedom:  36/ 72
       N       E                     dE             d eps       ncg     rms          rms(c)
RMM:   1    -0.534187710165E-01   -0.53419E-01    0.36343E-02367094   0.215E-01
RMM:   2    -0.509252954726E-01    0.24935E-02   -0.23761E-03233601   0.533E-02    0.150E-01
RMM:   3    -0.510008626569E-01   -0.75567E-04   -0.58645E-04224470   0.221E-02    0.164E-01
RMM:   4    -0.507947506706E-01    0.20611E-03   -0.26675E-04212528   0.138E-02    0.853E-02
RMM:   5    -0.508217832954E-01   -0.27033E-04   -0.12173E-04220699   0.987E-03    0.570E-02
RMM:   6    -0.507607322020E-01    0.61051E-04   -0.78225E-05219812   0.765E-03    0.224E-02
RMM:   7    -0.507564505542E-01    0.42816E-05   -0.79063E-06226112   0.261E-03    0.110E-02
 force on displaced ion      12 direction 3 :  -0.000   0.031 -10.862
 Linear response progress:
  Degree of freedom:  37/ 72
       N       E                     dE             d eps       ncg     rms          rms(c)
RMM:   1    -0.498055599595E-01   -0.49806E-01    0.40885E-02364589   0.211E-01
RMM:   2    -0.477131884996E-01    0.20924E-02   -0.22088E-03237361   0.504E-02    0.121E-01
RMM:   3    -0.478793691387E-01   -0.16618E-03   -0.49065E-04224532   0.200E-02    0.154E-01
RMM:   4    -0.476262868367E-01    0.25308E-03   -0.20781E-04210849   0.123E-02    0.677E-02
RMM:   5    -0.475985235269E-01    0.27763E-04   -0.20225E-05221476   0.503E-03    0.189E-02
RMM:   6    -0.475988336057E-01   -0.31008E-06   -0.54466E-06234120   0.195E-03    0.948E-03
 force on displaced ion      13 direction 1 :  -8.375  -0.000   0.000
 Linear response progress:
  Degree of freedom:  38/ 72
       N       E                     dE             d eps       ncg     rms          rms(c)
RMM:   1    -0.517977471337E-01   -0.51798E-01    0.40420E-02365881   0.211E-01
RMM:   2    -0.496502929629E-01    0.21475E-02   -0.22275E-03235726   0.506E-02    0.120E-01
RMM:   3    -0.497581197754E-01   -0.10783E-03   -0.40238E-04226687   0.184E-02    0.140E-01
RMM:   4    -0.495728581883E-01    0.18526E-03   -0.18053E-04211737   0.114E-02    0.668E-02
RMM:   5    -0.495573051431E-01    0.15553E-04   -0.31813E-05221836   0.579E-03    0.284E-02
RMM:   6    -0.495420064335E-01    0.15299E-04   -0.19426E-05225050   0.376E-03    0.114E-02
RMM:   7    -0.495424299519E-01   -0.42352E-06   -0.33969E-06234963   0.141E-03    0.394E-03
 force on displaced ion      13 direction 2 :  -0.000  -8.521  -0.027
 Linear response progress:
  Degree of freedom:  39/ 72
       N       E                     dE             d eps       ncg     rms          rms(c)
RMM:   1    -0.534186307936E-01   -0.53419E-01    0.36343E-02367093   0.215E-01
RMM:   2    -0.508062906767E-01    0.26123E-02   -0.24371E-03233612   0.533E-02    0.150E-01
RMM:   3    -0.509781590631E-01   -0.17187E-03   -0.59652E-04224474   0.221E-02    0.164E-01
RMM:   4    -0.507240807546E-01    0.25408E-03   -0.27209E-04212495   0.138E-02    0.853E-02
RMM:   5    -0.507666600974E-01   -0.42579E-04   -0.12450E-04220711   0.987E-03    0.570E-02
RMM:   6    -0.507116597022E-01    0.55000E-04   -0.81747E-05219771   0.765E-03    0.224E-02
RMM:   7    -0.507017452446E-01    0.99145E-05   -0.12792E-05226165   0.261E-03    0.110E-02
 force on displaced ion      13 direction 3 :   0.000  -0.031 -10.861
 Linear response progress:
  Degree of freedom:  40/ 72
       N       E                     dE             d eps       ncg     rms          rms(c)
RMM:   1    -0.498056426242E-01   -0.49806E-01    0.40884E-02364595   0.211E-01
RMM:   2    -0.477131858283E-01    0.20925E-02   -0.22088E-03237348   0.504E-02    0.121E-01
RMM:   3    -0.478793713641E-01   -0.16619E-03   -0.49066E-04224533   0.200E-02    0.154E-01
RMM:   4    -0.476262539950E-01    0.25312E-03   -0.20781E-04210821   0.123E-02    0.677E-02
RMM:   5    -0.475985132750E-01    0.27741E-04   -0.20240E-05221477   0.503E-03    0.189E-02
RMM:   6    -0.475988371596E-01   -0.32388E-06   -0.54372E-06233988   0.196E-03    0.949E-03
 force on displaced ion      14 direction 1 :  -8.375   0.000  -0.000
 Linear response progress:
  Degree of freedom:  41/ 72
       N       E                     dE             d eps       ncg     rms          rms(c)
RMM:   1    -0.517975691906E-01   -0.51798E-01    0.40422E-02365880   0.211E-01
RMM:   2    -0.496502605834E-01    0.21473E-02   -0.22275E-03235719   0.506E-02    0.120E-01
RMM:   3    -0.497581029716E-01   -0.10784E-03   -0.40238E-04226686   0.184E-02    0.140E-01
RMM:   4    -0.495727927208E-01    0.18531E-03   -0.18050E-04211792   0.114E-02    0.668E-02
RMM:   5    -0.495572895045E-01    0.15503E-04   -0.31763E-05221779   0.579E-03    0.284E-02
RMM:   6    -0.495419867154E-01    0.15303E-04   -0.19412E-05224752   0.375E-03    0.114E-02
RMM:   7    -0.495423733100E-01   -0.38659E-06   -0.33781E-06234906   0.140E-03    0.393E-03
 force on displaced ion      14 direction 2 :   0.000  -8.521  -0.027
 Linear response progress:
  Degree of freedom:  42/ 72
       N       E                     dE             d eps       ncg     rms          rms(c)
RMM:   1    -0.534187137602E-01   -0.53419E-01    0.36343E-02367103   0.215E-01
RMM:   2    -0.508057815101E-01    0.26129E-02   -0.24374E-03233610   0.533E-02    0.150E-01
RMM:   3    -0.509778493631E-01   -0.17207E-03   -0.59647E-04224490   0.221E-02    0.164E-01
RMM:   4    -0.507236490313E-01    0.25420E-03   -0.27173E-04212486   0.138E-02    0.853E-02
RMM:   5    -0.507661796555E-01   -0.42531E-04   -0.12404E-04220712   0.987E-03    0.570E-02
RMM:   6    -0.507112113587E-01    0.54968E-04   -0.81385E-05219781   0.765E-03    0.224E-02
RMM:   7    -0.507012755203E-01    0.99358E-05   -0.12258E-05226222   0.260E-03    0.110E-02
 force on displaced ion      14 direction 3 :  -0.000  -0.031 -10.861
 Linear response progress:
  Degree of freedom:  43/ 72
       N       E                     dE             d eps       ncg     rms          rms(c)
RMM:   1    -0.498057286007E-01   -0.49806E-01    0.40884E-02364596   0.211E-01
RMM:   2    -0.477132150180E-01    0.20925E-02   -0.22088E-03237347   0.504E-02    0.121E-01
RMM:   3    -0.478794017456E-01   -0.16619E-03   -0.49068E-04224545   0.200E-02    0.154E-01
RMM:   4    -0.476263150995E-01    0.25309E-03   -0.20784E-04210990   0.123E-02    0.677E-02
RMM:   5    -0.475985647506E-01    0.27750E-04   -0.20249E-05221396   0.503E-03    0.190E-02
RMM:   6    -0.475988523045E-01   -0.28755E-06   -0.54238E-06234656   0.195E-03    0.946E-03
 force on displaced ion      15 direction 1 :  -8.375   0.000  -0.000
 Linear response progress:
  Degree of freedom:  44/ 72
       N       E                     dE             d eps       ncg     rms          rms(c)
RMM:   1    -0.517976337165E-01   -0.51798E-01    0.40422E-02365883   0.211E-01
RMM:   2    -0.496503235591E-01    0.21473E-02   -0.22275E-03235726   0.506E-02    0.120E-01
RMM:   3    -0.497581587727E-01   -0.10784E-03   -0.40237E-04226735   0.184E-02    0.140E-01
RMM:   4    -0.495728717608E-01    0.18529E-03   -0.18051E-04211664   0.114E-02    0.668E-02
RMM:   5    -0.495573454129E-01    0.15526E-04   -0.31791E-05221844   0.579E-03    0.284E-02
RMM:   6    -0.495420746563E-01    0.15271E-04   -0.19439E-05225106   0.375E-03    0.114E-02
RMM:   7    -0.495424713295E-01   -0.39667E-06   -0.34010E-06235204   0.139E-03    0.393E-03
 force on displaced ion      15 direction 2 :   0.000  -8.521  -0.027
 Linear response progress:
  Degree of freedom:  45/ 72
       N       E                     dE             d eps       ncg     rms          rms(c)
RMM:   1    -0.534187365933E-01   -0.53419E-01    0.36343E-02367096   0.215E-01
RMM:   2    -0.508067205681E-01    0.26120E-02   -0.24371E-03233606   0.533E-02    0.150E-01
RMM:   3    -0.509783815758E-01   -0.17166E-03   -0.59664E-04224486   0.221E-02    0.164E-01
RMM:   4    -0.507244608400E-01    0.25392E-03   -0.27297E-04212474   0.138E-02    0.853E-02
RMM:   5    -0.507670441090E-01   -0.42583E-04   -0.12515E-04220713   0.987E-03    0.570E-02
RMM:   6    -0.507119659976E-01    0.55078E-04   -0.82269E-05219751   0.765E-03    0.224E-02
RMM:   7    -0.507020890920E-01    0.98769E-05   -0.13575E-05226083   0.261E-03    0.110E-02
 force on displaced ion      15 direction 3 :  -0.000  -0.031 -10.861
 Linear response progress:
  Degree of freedom:  46/ 72
       N       E                     dE             d eps       ncg     rms          rms(c)
RMM:   1    -0.498056868453E-01   -0.49806E-01    0.40884E-02364586   0.211E-01
RMM:   2    -0.477132321925E-01    0.20925E-02   -0.22088E-03237347   0.504E-02    0.121E-01
RMM:   3    -0.478794283119E-01   -0.16620E-03   -0.49070E-04224549   0.200E-02    0.154E-01
RMM:   4    -0.476263289244E-01    0.25310E-03   -0.20784E-04210999   0.123E-02    0.677E-02
RMM:   5    -0.475985688509E-01    0.27760E-04   -0.20230E-05221403   0.503E-03    0.190E-02
RMM:   6    -0.475988680327E-01   -0.29918E-06   -0.54433E-06234426   0.195E-03    0.947E-03
 force on displaced ion      16 direction 1 :  -8.376  -0.000   0.000
 Linear response progress:
  Degree of freedom:  47/ 72
       N       E                     dE             d eps       ncg     rms          rms(c)
RMM:   1    -0.517977833457E-01   -0.51798E-01    0.40421E-02365880   0.211E-01
RMM:   2    -0.496502994153E-01    0.21475E-02   -0.22276E-03235723   0.506E-02    0.120E-01
RMM:   3    -0.497581290144E-01   -0.10783E-03   -0.40236E-04226704   0.184E-02    0.140E-01
RMM:   4    -0.495728465255E-01    0.18528E-03   -0.18053E-04211700   0.114E-02    0.668E-02
RMM:   5    -0.495573469463E-01    0.15500E-04   -0.31797E-05221697   0.579E-03    0.284E-02
RMM:   6    -0.495420345579E-01    0.15312E-04   -0.19433E-05225277   0.375E-03    0.114E-02
RMM:   7    -0.495424506677E-01   -0.41611E-06   -0.34212E-06234836   0.143E-03    0.396E-03
 force on displaced ion      16 direction 2 :  -0.000  -8.521  -0.027
 Linear response progress:
  Degree of freedom:  48/ 72
       N       E                     dE             d eps       ncg     rms          rms(c)
RMM:   1    -0.534187694100E-01   -0.53419E-01    0.36343E-02367093   0.215E-01
RMM:   2    -0.508060358121E-01    0.26127E-02   -0.24371E-03233607   0.533E-02    0.150E-01
RMM:   3    -0.509780013304E-01   -0.17197E-03   -0.59633E-04224481   0.221E-02    0.164E-01
RMM:   4    -0.507238571851E-01    0.25414E-03   -0.27184E-04212485   0.138E-02    0.853E-02
RMM:   5    -0.507664087957E-01   -0.42552E-04   -0.12410E-04220693   0.987E-03    0.570E-02
RMM:   6    -0.507113876383E-01    0.55021E-04   -0.81384E-05219791   0.765E-03    0.224E-02
RMM:   7    -0.507014548095E-01    0.99328E-05   -0.12183E-05226238   0.262E-03    0.110E-02
 force on displaced ion      16 direction 3 :   0.000  -0.031 -10.862
 Linear response progress:
  Degree of freedom:  49/ 72
       N       E                     dE             d eps       ncg     rms          rms(c)
RMM:   1    -0.137581812452E+00   -0.13758E+00   -0.10339E-01235154   0.331E-01
RMM:   2    -0.132084445387E+00    0.54974E-02   -0.32229E-03220045   0.566E-02    0.168E-01
RMM:   3    -0.131915690076E+00    0.16876E-03   -0.28582E-04227695   0.160E-02    0.107E-01
RMM:   4    -0.132057991225E+00   -0.14230E-03   -0.46127E-04212074   0.186E-02    0.125E-01
RMM:   5    -0.131791690960E+00    0.26630E-03   -0.26833E-04215096   0.146E-02    0.250E-02
RMM:   6    -0.131792631212E+00   -0.94025E-06   -0.51091E-06225163   0.259E-03    0.838E-03
 force on displaced ion      17 direction 1 : -14.390  -0.000   0.000
 Linear response progress:
  Degree of freedom:  50/ 72
       N       E                     dE             d eps       ncg     rms          rms(c)
RMM:   1    -0.138639619075E+00   -0.13864E+00   -0.10356E-01235755   0.331E-01
RMM:   2    -0.133076899265E+00    0.55627E-02   -0.32034E-03220406   0.567E-02    0.170E-01
RMM:   3    -0.132874574362E+00    0.20232E-03   -0.38540E-04227691   0.176E-02    0.119E-01
RMM:   4    -0.132865151591E+00    0.94228E-05   -0.42143E-04213024   0.177E-02    0.956E-02
RMM:   5    -0.132702976086E+00    0.16218E-03   -0.17650E-04219909   0.124E-02    0.227E-02
RMM:   6    -0.132705868251E+00   -0.28922E-05   -0.51271E-06235169   0.247E-03    0.114E-02
 force on displaced ion      17 direction 2 :  -0.000 -14.664  -0.000
 Linear response progress:
  Degree of freedom:  51/ 72
       N       E                     dE             d eps       ncg     rms          rms(c)
RMM:   1    -0.140407558731E+00   -0.14041E+00   -0.10370E-01244585   0.344E-01
RMM:   2    -0.134702426197E+00    0.57051E-02   -0.36098E-03219106   0.584E-02    0.175E-01
RMM:   3    -0.134392406712E+00    0.31002E-03   -0.24673E-04227492   0.160E-02    0.992E-02
RMM:   4    -0.134308684233E+00    0.83722E-04   -0.10035E-04226460   0.112E-02    0.518E-02
RMM:   5    -0.134312311661E+00   -0.36274E-05   -0.29511E-05225949   0.620E-03    0.957E-03
 force on displaced ion      17 direction 3 :   0.000  -0.000 -19.015
 Linear response progress:
  Degree of freedom:  52/ 72
       N       E                     dE             d eps       ncg     rms          rms(c)
RMM:   1    -0.137584677223E+00   -0.13758E+00   -0.10339E-01235151   0.331E-01
RMM:   2    -0.132087604115E+00    0.54971E-02   -0.32227E-03220044   0.566E-02    0.168E-01
RMM:   3    -0.131918720140E+00    0.16888E-03   -0.28583E-04227663   0.160E-02    0.107E-01
RMM:   4    -0.132061108327E+00   -0.14239E-03   -0.46130E-04212071   0.186E-02    0.125E-01
RMM:   5    -0.131794683995E+00    0.26642E-03   -0.26835E-04215133   0.146E-02    0.250E-02
RMM:   6    -0.131795637677E+00   -0.95368E-06   -0.51318E-06225124   0.261E-03    0.839E-03
 force on displaced ion      18 direction 1 : -14.391  -0.000   0.000
 Linear response progress:
  Degree of freedom:  53/ 72
       N       E                     dE             d eps       ncg     rms          rms(c)
RMM:   1    -0.138642688525E+00   -0.13864E+00   -0.10356E-01235756   0.331E-01
RMM:   2    -0.133079985012E+00    0.55627E-02   -0.32035E-03220410   0.567E-02    0.170E-01
RMM:   3    -0.132877503051E+00    0.20248E-03   -0.38543E-04227689   0.176E-02    0.119E-01
RMM:   4    -0.132868105897E+00    0.93972E-05   -0.42148E-04213055   0.177E-02    0.956E-02
RMM:   5    -0.132705854266E+00    0.16225E-03   -0.17654E-04219904   0.124E-02    0.227E-02
RMM:   6    -0.132708784073E+00   -0.29298E-05   -0.51425E-06235148   0.247E-03    0.114E-02
 force on displaced ion      18 direction 2 :   0.000 -14.665  -0.000
 Linear response progress:
  Degree of freedom:  54/ 72
       N       E                     dE             d eps       ncg     rms          rms(c)
RMM:   1    -0.140410810537E+00   -0.14041E+00   -0.10370E-01244567   0.344E-01
RMM:   2    -0.134705608588E+00    0.57052E-02   -0.36101E-03219118   0.584E-02    0.175E-01
RMM:   3    -0.134395516113E+00    0.31009E-03   -0.24677E-04227491   0.160E-02    0.992E-02
RMM:   4    -0.134311775393E+00    0.83741E-04   -0.10039E-04226468   0.112E-02    0.518E-02
RMM:   5    -0.134315409359E+00   -0.36340E-05   -0.29521E-05225974   0.621E-03    0.957E-03
 force on displaced ion      18 direction 3 :  -0.000  -0.000 -19.017
 Linear response progress:
  Degree of freedom:  55/ 72
       N       E                     dE             d eps       ncg     rms          rms(c)
RMM:   1    -0.137581070516E+00   -0.13758E+00   -0.10339E-01235161   0.331E-01
RMM:   2    -0.132083939267E+00    0.54971E-02   -0.32229E-03220027   0.566E-02    0.168E-01
RMM:   3    -0.131915201647E+00    0.16874E-03   -0.28582E-04227711   0.160E-02    0.107E-01
RMM:   4    -0.132057482538E+00   -0.14228E-03   -0.46127E-04212063   0.186E-02    0.125E-01
RMM:   5    -0.131791140219E+00    0.26634E-03   -0.26832E-04215056   0.146E-02    0.250E-02
RMM:   6    -0.131792130413E+00   -0.99019E-06   -0.51117E-06225129   0.259E-03    0.838E-03
 force on displaced ion      19 direction 1 : -14.391  -0.000   0.000
 Linear response progress:
  Degree of freedom:  56/ 72
       N       E                     dE             d eps       ncg     rms          rms(c)
RMM:   1    -0.138639125116E+00   -0.13864E+00   -0.10356E-01235752   0.331E-01
RMM:   2    -0.133076198799E+00    0.55629E-02   -0.32035E-03220413   0.567E-02    0.170E-01
RMM:   3    -0.132874002669E+00    0.20220E-03   -0.38541E-04227690   0.176E-02    0.119E-01
RMM:   4    -0.132864516420E+00    0.94862E-05   -0.42144E-04213005   0.177E-02    0.956E-02
RMM:   5    -0.132702369773E+00    0.16215E-03   -0.17651E-04219896   0.124E-02    0.227E-02
RMM:   6    -0.132705278854E+00   -0.29091E-05   -0.51030E-06235243   0.245E-03    0.114E-02
 force on displaced ion      19 direction 2 :   0.000 -14.665   0.000
 Linear response progress:
  Degree of freedom:  57/ 72
       N       E                     dE             d eps       ncg     rms          rms(c)
RMM:   1    -0.140407402519E+00   -0.14041E+00   -0.10370E-01244583   0.344E-01
RMM:   2    -0.134702229204E+00    0.57052E-02   -0.36099E-03219134   0.584E-02    0.175E-01
RMM:   3    -0.134392096974E+00    0.31013E-03   -0.24673E-04227473   0.160E-02    0.992E-02
RMM:   4    -0.134308334777E+00    0.83762E-04   -0.10036E-04226484   0.111E-02    0.518E-02
RMM:   5    -0.134311966877E+00   -0.36321E-05   -0.29494E-05225951   0.620E-03    0.956E-03
 force on displaced ion      19 direction 3 :  -0.000  -0.000 -19.017
 Linear response progress:
  Degree of freedom:  58/ 72
       N       E                     dE             d eps       ncg     rms          rms(c)
RMM:   1    -0.137585366796E+00   -0.13759E+00   -0.10339E-01235144   0.331E-01
RMM:   2    -0.132087811235E+00    0.54976E-02   -0.32229E-03220027   0.566E-02    0.168E-01
RMM:   3    -0.131918994015E+00    0.16882E-03   -0.28585E-04227655   0.160E-02    0.107E-01
RMM:   4    -0.132061350852E+00   -0.14236E-03   -0.46133E-04212062   0.186E-02    0.125E-01
RMM:   5    -0.131794914245E+00    0.26644E-03   -0.26833E-04215030   0.146E-02    0.250E-02
RMM:   6    -0.131795905861E+00   -0.99162E-06   -0.51187E-06225141   0.259E-03    0.838E-03
 force on displaced ion      20 direction 1 : -14.394  -0.000  -0.000
 Linear response progress:
  Degree of freedom:  59/ 72
       N       E                     dE             d eps       ncg     rms          rms(c)
RMM:   1    -0.138643025219E+00   -0.13864E+00   -0.10356E-01235756   0.331E-01
RMM:   2    -0.133080186404E+00    0.55628E-02   -0.32035E-03220410   0.567E-02    0.170E-01
RMM:   3    -0.132877796371E+00    0.20239E-03   -0.38544E-04227684   0.176E-02    0.119E-01
RMM:   4    -0.132868321023E+00    0.94753E-05   -0.42149E-04213032   0.177E-02    0.956E-02
RMM:   5    -0.132706096613E+00    0.16222E-03   -0.17655E-04219894   0.124E-02    0.227E-02
RMM:   6    -0.132709016032E+00   -0.29194E-05   -0.51184E-06235203   0.246E-03    0.114E-02
 force on displaced ion      20 direction 2 :  -0.000 -14.668   0.000
 Linear response progress:
  Degree of freedom:  60/ 72
       N       E                     dE             d eps       ncg     rms          rms(c)
RMM:   1    -0.140410934961E+00   -0.14041E+00   -0.10370E-01244569   0.344E-01
RMM:   2    -0.134705965358E+00    0.57050E-02   -0.36101E-03219155   0.584E-02    0.175E-01
RMM:   3    -0.134395770872E+00    0.31019E-03   -0.24677E-04227525   0.160E-02    0.992E-02
RMM:   4    -0.134311988320E+00    0.83783E-04   -0.10039E-04226521   0.112E-02    0.518E-02
RMM:   5    -0.134315651193E+00   -0.36629E-05   -0.29503E-05225936   0.621E-03    0.957E-03
 force on displaced ion      20 direction 3 :   0.000  -0.000 -19.019
 Linear response progress:
  Degree of freedom:  61/ 72
       N       E                     dE             d eps       ncg     rms          rms(c)
RMM:   1    -0.137583376846E+00   -0.13758E+00   -0.10339E-01235131   0.331E-01
RMM:   2    -0.132086732003E+00    0.54966E-02   -0.32230E-03220032   0.566E-02    0.168E-01
RMM:   3    -0.131917506224E+00    0.16923E-03   -0.28582E-04227666   0.160E-02    0.107E-01
RMM:   4    -0.132060077479E+00   -0.14257E-03   -0.46129E-04212078   0.186E-02    0.125E-01
RMM:   5    -0.131793419864E+00    0.26666E-03   -0.26834E-04215060   0.146E-02    0.250E-02
RMM:   6    -0.131794409414E+00   -0.98955E-06   -0.51347E-06225239   0.259E-03    0.838E-03
 force on displaced ion      21 direction 1 : -14.391  -0.000   0.000
 Linear response progress:
  Degree of freedom:  62/ 72
       N       E                     dE             d eps       ncg     rms          rms(c)
RMM:   1    -0.138640864440E+00   -0.13864E+00   -0.10356E-01235761   0.331E-01
RMM:   2    -0.133076498339E+00    0.55644E-02   -0.32037E-03220432   0.567E-02    0.170E-01
RMM:   3    -0.132875288323E+00    0.20121E-03   -0.38537E-04227698   0.176E-02    0.119E-01
RMM:   4    -0.132865478020E+00    0.98103E-05   -0.42148E-04213066   0.177E-02    0.956E-02
RMM:   5    -0.132703654796E+00    0.16182E-03   -0.17648E-04219898   0.124E-02    0.227E-02
RMM:   6    -0.132706532967E+00   -0.28782E-05   -0.51493E-06235216   0.246E-03    0.114E-02
 force on displaced ion      21 direction 2 :   0.000 -14.665   0.000
 Linear response progress:
  Degree of freedom:  63/ 72
       N       E                     dE             d eps       ncg     rms          rms(c)
RMM:   1    -0.140408820378E+00   -0.14041E+00   -0.10370E-01244568   0.344E-01
RMM:   2    -0.134703486059E+00    0.57053E-02   -0.36099E-03219123   0.584E-02    0.175E-01
RMM:   3    -0.134393362371E+00    0.31012E-03   -0.24673E-04227484   0.160E-02    0.992E-02
RMM:   4    -0.134309641244E+00    0.83721E-04   -0.10038E-04226450   0.112E-02    0.518E-02
RMM:   5    -0.134313286991E+00   -0.36457E-05   -0.29498E-05225942   0.620E-03    0.956E-03
 force on displaced ion      21 direction 3 :  -0.000  -0.000 -19.017
 Linear response progress:
  Degree of freedom:  64/ 72
       N       E                     dE             d eps       ncg     rms          rms(c)
RMM:   1    -0.137585815066E+00   -0.13759E+00   -0.10340E-01235128   0.331E-01
RMM:   2    -0.132088475882E+00    0.54973E-02   -0.32231E-03220042   0.566E-02    0.168E-01
RMM:   3    -0.131919425326E+00    0.16905E-03   -0.28583E-04227652   0.160E-02    0.107E-01
RMM:   4    -0.132061894224E+00   -0.14247E-03   -0.46134E-04212076   0.186E-02    0.125E-01
RMM:   5    -0.131795381258E+00    0.26651E-03   -0.26834E-04215067   0.146E-02    0.250E-02
RMM:   6    -0.131796328392E+00   -0.94713E-06   -0.50861E-06225235   0.259E-03    0.839E-03
 force on displaced ion      22 direction 1 : -14.393  -0.000   0.000
 Linear response progress:
  Degree of freedom:  65/ 72
       N       E                     dE             d eps       ncg     rms          rms(c)
RMM:   1    -0.138642914056E+00   -0.13864E+00   -0.10356E-01235763   0.331E-01
RMM:   2    -0.133079385830E+00    0.55635E-02   -0.32036E-03220418   0.567E-02    0.170E-01
RMM:   3    -0.132877536494E+00    0.20185E-03   -0.38539E-04227691   0.176E-02    0.119E-01
RMM:   4    -0.132867840063E+00    0.96964E-05   -0.42151E-04213112   0.178E-02    0.956E-02
RMM:   5    -0.132705804498E+00    0.16204E-03   -0.17652E-04219898   0.124E-02    0.227E-02
RMM:   6    -0.132708683266E+00   -0.28788E-05   -0.51521E-06235219   0.247E-03    0.114E-02
 force on displaced ion      22 direction 2 :  -0.000 -14.668  -0.000
 Linear response progress:
  Degree of freedom:  66/ 72
       N       E                     dE             d eps       ncg     rms          rms(c)
RMM:   1    -0.140410089683E+00   -0.14041E+00   -0.10369E-01244575   0.344E-01
RMM:   2    -0.134705754441E+00    0.57043E-02   -0.36099E-03219129   0.584E-02    0.175E-01
RMM:   3    -0.134395538770E+00    0.31022E-03   -0.24678E-04227522   0.160E-02    0.992E-02
RMM:   4    -0.134311784037E+00    0.83755E-04   -0.10042E-04226538   0.112E-02    0.518E-02
RMM:   5    -0.134315415660E+00   -0.36316E-05   -0.29497E-05225933   0.621E-03    0.956E-03
 force on displaced ion      22 direction 3 :   0.000  -0.000 -19.019
 Linear response progress:
  Degree of freedom:  67/ 72
       N       E                     dE             d eps       ncg     rms          rms(c)
RMM:   1    -0.137585236233E+00   -0.13759E+00   -0.10340E-01235124   0.331E-01
RMM:   2    -0.132088154306E+00    0.54971E-02   -0.32231E-03220042   0.566E-02    0.168E-01
RMM:   3    -0.131918950029E+00    0.16920E-03   -0.28583E-04227675   0.160E-02    0.107E-01
RMM:   4    -0.132061532797E+00   -0.14258E-03   -0.46135E-04212110   0.186E-02    0.125E-01
RMM:   5    -0.131794843703E+00    0.26669E-03   -0.26839E-04215078   0.146E-02    0.250E-02
RMM:   6    -0.131795820647E+00   -0.97694E-06   -0.51342E-06225202   0.260E-03    0.839E-03
 force on displaced ion      23 direction 1 : -14.394  -0.000   0.000
 Linear response progress:
  Degree of freedom:  68/ 72
       N       E                     dE             d eps       ncg     rms          rms(c)
RMM:   1    -0.138642401928E+00   -0.13864E+00   -0.10356E-01235758   0.331E-01
RMM:   2    -0.133079172782E+00    0.55632E-02   -0.32035E-03220400   0.567E-02    0.170E-01
RMM:   3    -0.132877039056E+00    0.20213E-03   -0.38539E-04227697   0.176E-02    0.119E-01
RMM:   4    -0.132867422493E+00    0.96166E-05   -0.42150E-04213085   0.177E-02    0.956E-02
RMM:   5    -0.132705310569E+00    0.16211E-03   -0.17651E-04219903   0.124E-02    0.227E-02
RMM:   6    -0.132708211220E+00   -0.29007E-05   -0.51577E-06235192   0.247E-03    0.114E-02
 force on displaced ion      23 direction 2 :  -0.000 -14.669  -0.000
 Linear response progress:
  Degree of freedom:  69/ 72
       N       E                     dE             d eps       ncg     rms          rms(c)
RMM:   1    -0.140409557298E+00   -0.14041E+00   -0.10369E-01244575   0.344E-01
RMM:   2    -0.134705251501E+00    0.57043E-02   -0.36098E-03219131   0.584E-02    0.175E-01
RMM:   3    -0.134395064970E+00    0.31019E-03   -0.24676E-04227518   0.160E-02    0.992E-02
RMM:   4    -0.134311280615E+00    0.83784E-04   -0.10041E-04226571   0.112E-02    0.518E-02
RMM:   5    -0.134314913434E+00   -0.36328E-05   -0.29502E-05225916   0.620E-03    0.956E-03
 force on displaced ion      23 direction 3 :  -0.000  -0.000 -19.020
 Linear response progress:
  Degree of freedom:  70/ 72
       N       E                     dE             d eps       ncg     rms          rms(c)
RMM:   1    -0.137584071474E+00   -0.13758E+00   -0.10340E-01235131   0.331E-01
RMM:   2    -0.132086706225E+00    0.54974E-02   -0.32229E-03220039   0.566E-02    0.168E-01
RMM:   3    -0.131917806292E+00    0.16890E-03   -0.28582E-04227704   0.160E-02    0.107E-01
RMM:   4    -0.132060268391E+00   -0.14246E-03   -0.46133E-04212104   0.186E-02    0.125E-01
RMM:   5    -0.131793790310E+00    0.26648E-03   -0.26834E-04215086   0.146E-02    0.250E-02
RMM:   6    -0.131794769983E+00   -0.97967E-06   -0.50986E-06225213   0.260E-03    0.838E-03
 force on displaced ion      24 direction 1 : -14.393  -0.000   0.000
 Linear response progress:
  Degree of freedom:  71/ 72
       N       E                     dE             d eps       ncg     rms          rms(c)
RMM:   1    -0.138641453138E+00   -0.13864E+00   -0.10356E-01235764   0.331E-01
RMM:   2    -0.133078487613E+00    0.55630E-02   -0.32033E-03220392   0.567E-02    0.170E-01
RMM:   3    -0.132876196085E+00    0.20229E-03   -0.38538E-04227691   0.176E-02    0.119E-01
RMM:   4    -0.132866598370E+00    0.95977E-05   -0.42144E-04213027   0.177E-02    0.956E-02
RMM:   5    -0.132704428728E+00    0.16217E-03   -0.17650E-04219903   0.124E-02    0.227E-02
RMM:   6    -0.132707333657E+00   -0.29049E-05   -0.51395E-06235223   0.246E-03    0.114E-02
 force on displaced ion      24 direction 2 :  -0.000 -14.667   0.000
 Linear response progress:
  Degree of freedom:  72/ 72
       N       E                     dE             d eps       ncg     rms          rms(c)
RMM:   1    -0.140409526413E+00   -0.14041E+00   -0.10370E-01244563   0.344E-01
RMM:   2    -0.134704132650E+00    0.57054E-02   -0.36101E-03219119   0.584E-02    0.175E-01
RMM:   3    -0.134394017098E+00    0.31012E-03   -0.24676E-04227509   0.160E-02    0.992E-02
RMM:   4    -0.134310276773E+00    0.83740E-04   -0.10039E-04226504   0.112E-02    0.518E-02
RMM:   5    -0.134313907032E+00   -0.36303E-05   -0.29506E-05225940   0.620E-03    0.956E-03
 force on displaced ion      24 direction 3 :  -0.000  -0.000 -19.019
 Linear response finished
