  24
   1   1
     8.557049952000000    -0.000020416000000    -0.000028072000000
    -0.000020416000000     4.707740751999999    -0.218365708000000
    -0.000028072000000    -0.218365708000000    12.969204028000000
   1   2
    -2.813259724000000     0.000002552000000    -0.000002552000000
    -0.000000000000000     0.180575692000000    -0.062199896000000
     0.000006380000000    -0.062207552000000     0.160514420000000
   1   3
     0.032956528000000     0.000005104000000    -0.000000000000000
     0.000001276000000     0.062952736000000     0.000899580000000
    -0.000005104000000     0.000905960000000    -0.012031404000000
   1   4
     0.010350912000000     0.000002552000000     0.000007656000000
    -0.000003828000000     0.057189044000000     0.019691232000000
     0.000008932000000     0.019691232000000     0.010710744000000
   1   5
     0.130604980000000    -0.000002552000000    -0.000000000000000
     0.000005104000000    -0.197042472000000     0.041394716000000
    -0.000002552000000     0.270170032000000    -0.069414400000000
   1   6
    -0.029063452000000    -0.000008932000000    -0.000000000000000
     0.000001276000000    -0.032332564000000     0.005135900000000
     0.000005104000000     0.021916576000000    -0.043001200000000
   1   7
    -0.011851488000000     0.000001276000000    -0.000001276000000
     0.000001276000000    -0.179100636000000    -0.188111748000000
    -0.000001276000000    -0.369197840000000    -0.413418896000000
   1   8
    -0.457814764000000     0.000001276000000    -0.000001276000000
    -0.000006380000000    -0.274045244000000     0.067528472000000
    -0.000003828000000    -0.481797184000000    -0.122450064000000
   1   9
     0.041138240000000     0.005463832000000    -0.021496772000000
     0.005476592000000     0.161618160000000     0.129514000000000
    -0.021522292000000     0.129473168000000    -0.109891672000000
   1  10
     0.041147172000000    -0.005470212000000     0.021506980000000
    -0.005482972000000     0.161618160000000     0.129517828000000
     0.021523568000000     0.129475720000000    -0.109898052000000
   1  11
    -0.015613136000000    -0.018292736000000    -0.013738692000000
    -0.018282528000000    -0.028476492000000    -0.001616692000000
    -0.013750176000000    -0.001610312000000    -0.039621076000000
   1  12
    -0.015609308000000     0.018292736000000     0.013732312000000
     0.018279976000000    -0.028479044000000    -0.001612864000000
     0.013745072000000    -0.001610312000000    -0.039621076000000
   1  13
    -0.057038476000000     0.111789084000000    -0.057357476000000
     0.203450544000000    -0.278784308000000     0.069154096000000
    -0.118361760000000     0.003935184000000     0.242946572000000
   1  14
    -0.057032096000000    -0.111796740000000     0.057362580000000
    -0.203453096000000    -0.278783032000000     0.069155372000000
     0.118360484000000     0.003942840000000     0.242941468000000
   1  15
    -0.168639988000000    -0.356981416000000    -0.042564808000000
    -0.396712228000000    -0.430560680000000    -0.069841860000000
     0.104778740000000    -0.110269368000000     0.164194404000000
   1  16
    -0.168641264000000     0.357000556000000     0.042564808000000
     0.396714780000000    -0.430559404000000    -0.069839308000000
    -0.104771084000000    -0.110260436000000     0.164195680000000
   1  17
    -0.509062164868812     0.000001106433188     0.000003319299565
    -0.000007745032318    -2.210424478398407     2.862722164514927
    -0.000011064331882     2.693881566425376    -4.568340926519614
   1  18
    -0.034361389093435    -0.000004425732753    -0.000003319299565
    -0.000005532165941    -0.138051881760886    -0.020169170588106
    -0.000015490064635     0.018326959329716    -0.302174648735857
   1  19
     0.035104912195921     0.000001106433188     0.000002212866376
     0.000003319299565     0.059626790946494     0.151170860073639
     0.000014383631447     0.006760306780039    -0.061960258540455
   1  20
     0.027781430923076     0.000003319299565     0.000001106433188
     0.000002212866376    -0.106562793224076    -0.247765796705020
     0.000011064331882     0.131204166758978     0.039625798202997
   1  21
    -2.290977240233751    -0.642492475202493    -2.922974090212766
    -0.513081836641624    -0.374386010765192    -1.320903090994250
    -2.772887534663585    -1.022228090432741    -4.042275096414199
   1  22
    -2.290970601634622     0.642509071700316     2.922984048111460
     0.513074091609306    -0.374382691465628    -1.320913048892944
     2.772884215364020    -1.022236941898246    -4.042278415713764
   1  23
    -0.016828848792863     0.012082250415389    -0.009590562875512
     0.040829597511783    -0.091303973125301    -0.015574153557419
     0.013719771533958    -0.013406650941691     0.028611255814243
   1  24
    -0.016823316626922    -0.012074505383071     0.009592775741888
    -0.040825171779030    -0.091292908793419    -0.015576366423795
    -0.013692110704252    -0.013407757374879     0.028624533012502
   2   1
    -2.813259724000000    -0.000000000000000     0.000006380000000
     0.000002552000000     0.180575692000000    -0.062207552000000
    -0.000002552000000    -0.062199896000000     0.160514420000000
   2   2
     8.557150756000000     0.000010208000000     0.000008932000000
     0.000010208000000     4.707781583999999    -0.218364432000000
     0.000008932000000    -0.218364432000000    12.969276760000000
   2   3
     0.010339428000000    -0.000003828000000     0.000002552000000
    -0.000003828000000     0.057185216000000     0.019686128000000
    -0.000001276000000     0.019691232000000     0.010719676000000
   2   4
     0.032969288000000    -0.000002552000000    -0.000001276000000
     0.000001276000000     0.062955288000000     0.000902132000000
    -0.000003828000000     0.000904684000000    -0.012022472000000
   2   5
    -0.029069832000000    -0.000005104000000     0.000002552000000
     0.000003828000000    -0.032335116000000     0.005149936000000
     0.000000000000000     0.021898712000000    -0.043012684000000
   2   6
     0.130610084000000     0.000001276000000    -0.000002552000000
     0.000000000000000    -0.197039920000000     0.041381956000000
     0.000001276000000     0.270178964000000    -0.069405468000000
   2   7
    -0.457810936000000     0.000005104000000     0.000000000000000
    -0.000005104000000    -0.274038864000000     0.067528472000000
    -0.000011484000000    -0.481792080000000    -0.122453892000000
   2   8
    -0.011860420000000     0.000001276000000    -0.000002552000000
    -0.000006380000000    -0.179100636000000    -0.188104092000000
     0.000001276000000    -0.369205496000000    -0.413412516000000
   2   9
     0.041143344000000    -0.005472764000000     0.021496772000000
    -0.005481696000000     0.161614332000000     0.129517828000000
     0.021524844000000     0.129474444000000    -0.109892948000000
   2  10
     0.041138240000000     0.005460004000000    -0.021495496000000
     0.005479144000000     0.161619436000000     0.129519104000000
    -0.021526120000000     0.129474444000000    -0.109886568000000
   2  11
    -0.015616964000000     0.018291460000000     0.013741244000000
     0.018281252000000    -0.028479044000000    -0.001610312000000
     0.013745072000000    -0.001609036000000    -0.039636388000000
   2  12
    -0.015608032000000    -0.018288908000000    -0.013745072000000
    -0.018277424000000    -0.028476492000000    -0.001614140000000
    -0.013746348000000    -0.001601380000000    -0.039627456000000
   2  13
    -0.057030820000000    -0.111789084000000     0.057363856000000
    -0.203449268000000    -0.278777928000000     0.069157924000000
     0.118359208000000     0.003937736000000     0.242937640000000
   2  14
    -0.057043580000000     0.111785256000000    -0.057361304000000
     0.203444164000000    -0.278779204000000     0.069154096000000
    -0.118355380000000     0.003941564000000     0.242937640000000
   2  15
    -0.168638712000000     0.356995452000000     0.042564808000000
     0.396716056000000    -0.430564508000000    -0.069844412000000
    -0.104771084000000    -0.110265540000000     0.164191852000000
   2  16
    -0.168634884000000    -0.356980140000000    -0.042564808000000
    -0.396716056000000    -0.430572164000000    -0.069844412000000
     0.104774912000000    -0.110255332000000     0.164184196000000
   2  17
    -0.034360282660247    -0.000001106433188    -0.000004425732753
    -0.000003319299565    -0.138050775327698    -0.020172489887671
    -0.000012170765070     0.018317001431022    -0.302172435869480
   2  18
    -0.509073229200694    -0.000004425732753    -0.000001106433188
    -0.000012170765070    -2.210418946232466     2.862716632348986
    -0.000011064331882     2.693882672858564    -4.568327649321355
   2  19
     0.027765940858441    -0.000001106433188     0.000002212866376
     0.000002212866376    -0.106565006090453    -0.247773541737338
     0.000008851465506     0.131209698924919     0.039626904636186
   2  20
     0.035107125062297     0.000003319299565     0.000001106433188
    -0.000002212866376     0.059624578080117     0.151166434340886
     0.000012170765070     0.006762519646415    -0.061961364973643
   2  21
    -2.290977240233751     0.642495794502058     2.922988473844213
     0.513065240143801    -0.374387117198380    -1.320914155326132
     2.772873151032138    -1.022235835465058    -4.042287267179271
   2  22
    -2.290986091699257    -0.642506858833940    -2.922978515945519
    -0.513078517342059    -0.374381585032439    -1.320907516727003
    -2.772896386129091    -1.022235835465058    -4.042281735013329
   2  23
    -0.016835487391992    -0.012073398949883     0.009591669308700
    -0.040828491078595    -0.091301760258925    -0.015575259990607
    -0.013702068602946    -0.013407757374879     0.028609042947867
   2  24
    -0.016825529493298     0.012074505383071    -0.009590562875512
     0.040832916811348    -0.091292908793419    -0.015576366423795
     0.013714239368017    -0.013408863808067     0.028621213712937
   3   1
     0.032956528000000     0.000001276000000    -0.000005104000000
     0.000005104000000     0.062952736000000     0.000905960000000
    -0.000000000000000     0.000899580000000    -0.012031404000000
   3   2
     0.010339428000000    -0.000003828000000    -0.000001276000000
    -0.000003828000000     0.057185216000000     0.019691232000000
     0.000002552000000     0.019686128000000     0.010719676000000
   3   3
     8.557223488000000     0.000020416000000     0.000053592000000
     0.000020416000000     4.707842832000000    -0.218324876000000
     0.000053592000000    -0.218324876000000    12.969317591999999
   3   4
    -2.813241860000000     0.000007656000000    -0.000000000000000
    -0.000002552000000     0.180575692000000    -0.062202448000000
    -0.000002552000000    -0.062202448000000     0.160511868000000
   3   5
    -0.011850212000000     0.000002552000000     0.000001276000000
    -0.000000000000000    -0.179091704000000    -0.188111748000000
     0.000000000000000    -0.369196564000000    -0.413417620000000
   3   6
    -0.457827524000000     0.000001276000000     0.000000000000000
    -0.000007656000000    -0.274035036000000     0.067527196000000
    -0.000002552000000    -0.481795908000000    -0.122457720000000
   3   7
     0.130604980000000    -0.000003828000000    -0.000002552000000
     0.000003828000000    -0.197048852000000     0.041388336000000
    -0.000003828000000     0.270173860000000    -0.069402916000000
   3   8
    -0.029067280000000    -0.000010208000000    -0.000002552000000
     0.000000000000000    -0.032337668000000     0.005141004000000
    -0.000001276000000     0.021899988000000    -0.043007580000000
   3   9
    -0.015611860000000    -0.018287632000000    -0.013745072000000
    -0.018279976000000    -0.028475216000000    -0.001616692000000
    -0.013750176000000    -0.001601380000000    -0.039622352000000
   3  10
    -0.015618240000000     0.018287632000000     0.013738692000000
     0.018279976000000    -0.028480320000000    -0.001612864000000
     0.013741244000000    -0.001607760000000    -0.039626180000000
   3  11
     0.041136964000000     0.005467660000000    -0.021504428000000
     0.005474040000000     0.161616884000000     0.129519104000000
    -0.021521016000000     0.129483376000000    -0.109891672000000
   3  12
     0.041138240000000    -0.005471488000000     0.021498048000000
    -0.005480420000000     0.161613056000000     0.129516552000000
     0.021524844000000     0.129487204000000    -0.109901880000000
   3  13
    -0.168632332000000    -0.356983968000000    -0.042564808000000
    -0.396718608000000    -0.430567060000000    -0.069841860000000
     0.104777464000000    -0.110254056000000     0.164184196000000
   3  14
    -0.168642540000000     0.356989072000000     0.042567360000000
     0.396714780000000    -0.430561956000000    -0.069843136000000
    -0.104774912000000    -0.110264264000000     0.164190576000000
   3  15
    -0.057043580000000     0.111783980000000    -0.057360028000000
     0.203451820000000    -0.278791964000000     0.069156648000000
    -0.118355380000000     0.003939012000000     0.242946572000000
   3  16
    -0.057033372000000    -0.111798016000000     0.057353648000000
    -0.203453096000000    -0.278788136000000     0.069154096000000
     0.118352828000000     0.003931356000000     0.242947848000000
   3  17
     0.035106018629109    -0.000000000000000     0.000002212866376
     0.000001106433188     0.059627897379682     0.151164221474510
     0.000013277198259     0.006762519646415    -0.061961364973643
   3  18
     0.027770366591194    -0.000003319299565    -0.000002212866376
    -0.000000000000000    -0.106557261058135    -0.247774648170526
     0.000007745032318     0.131201953892601     0.039631330368938
   3  19
    -0.509062164868812    -0.000002212866376     0.000002212866376
    -0.000007745032318    -2.210431116997536     2.862724377381303
    -0.000004425732753     2.693879353558999    -4.568334287920484
   3  20
    -0.034363601959812    -0.000001106433188    -0.000005532165941
    -0.000008851465506    -0.138060733226392    -0.020174702754047
    -0.000021022230576     0.018324746463340    -0.302180180901798
   3  21
    -0.016826635926486     0.012074505383071    -0.009593882175076
     0.040830703944971    -0.091298440959360    -0.015584111456113
     0.013714239368017    -0.013409970241256     0.028619000846561
   3  22
    -0.016821103760545    -0.012075611816259     0.009585030709571
    -0.040827384645407    -0.091288483060666    -0.015579685723360
    -0.013697642870193    -0.013411076674444     0.028626745878878
   3  23
    -2.290998262464327    -0.642505752400752    -2.922994006010154
    -0.513072985176118    -0.374397075097074    -1.320910836026568
    -2.772876470331703    -1.022234729031870    -4.042301650810717
   3  24
    -2.290986091699257     0.642513497433069     2.922994006010154
     0.513078517342059    -0.374393755797510    -1.320913048892944
     2.772891960396338    -1.022240261197811    -4.042291692912023
   4   1
     0.010350912000000    -0.000003828000000     0.000008932000000
     0.000002552000000     0.057189044000000     0.019691232000000
     0.000007656000000     0.019691232000000     0.010710744000000
   4   2
     0.032969288000000     0.000001276000000    -0.000003828000000
    -0.000002552000000     0.062955288000000     0.000904684000000
    -0.000001276000000     0.000902132000000    -0.012022472000000
   4   3
    -2.813241860000000    -0.000002552000000    -0.000002552000000
     0.000007656000000     0.180575692000000    -0.062202448000000
    -0.000000000000000    -0.062202448000000     0.160511868000000
   4   4
     8.557228592000000    -0.000029348000000    -0.000068904000000
    -0.000029348000000     4.707805828000000    -0.218329980000000
    -0.000068904000000    -0.218329980000000    12.969276760000000
   4   5
    -0.457809660000000     0.000010208000000     0.000008932000000
     0.000001276000000    -0.274043968000000     0.067528472000000
    -0.000003828000000    -0.481784424000000    -0.122455168000000
   4   6
    -0.011861696000000     0.000011484000000     0.000005104000000
    -0.000007656000000    -0.179095532000000    -0.188113024000000
     0.000002552000000    -0.369202944000000    -0.413426552000000
   4   7
    -0.029078764000000    -0.000006380000000     0.000001276000000
     0.000002552000000    -0.032338944000000     0.005144832000000
     0.000007656000000     0.021898712000000    -0.042999924000000
   4   8
     0.130607532000000     0.000001276000000    -0.000002552000000
     0.000003828000000    -0.197057784000000     0.041387060000000
    -0.000001276000000     0.270181516000000    -0.069411848000000
   4   9
    -0.015613136000000     0.018282528000000     0.013743796000000
     0.018281252000000    -0.028477768000000    -0.001612864000000
     0.013746348000000    -0.001602656000000    -0.039621076000000
   4  10
    -0.015613136000000    -0.018287632000000    -0.013745072000000
    -0.018278700000000    -0.028472664000000    -0.001611588000000
    -0.013743796000000    -0.001603932000000    -0.039623628000000
   4  11
     0.041143344000000    -0.005475316000000     0.021504428000000
    -0.005479144000000     0.161618160000000     0.129511448000000
     0.021526120000000     0.129485928000000    -0.109898052000000
   4  12
     0.041134412000000     0.005463832000000    -0.021494220000000
     0.005477868000000     0.161616884000000     0.129516552000000
    -0.021521016000000     0.129480824000000    -0.109891672000000
   4  13
    -0.168639988000000     0.356998004000000     0.042567360000000
     0.396716056000000    -0.430564508000000    -0.069841860000000
    -0.104776188000000    -0.110255332000000     0.164195680000000
   4  14
    -0.168637436000000    -0.356969932000000    -0.042564808000000
    -0.396714780000000    -0.430561956000000    -0.069845688000000
     0.104773636000000    -0.110257884000000     0.164191852000000
   4  15
    -0.057032096000000    -0.111790360000000     0.057360028000000
    -0.203458200000000    -0.278786860000000     0.069154096000000
     0.118357932000000     0.003939012000000     0.242945296000000
   4  16
    -0.057049960000000     0.111791636000000    -0.057352372000000
     0.203451820000000    -0.278794516000000     0.069151544000000
    -0.118355380000000     0.003930080000000     0.242947848000000
   4  17
     0.027763727992065     0.000003319299565     0.000001106433188
     0.000001106433188    -0.106556154624947    -0.247773541737338
     0.000013277198259     0.131207486058542     0.039625798202997
   4  18
     0.035113763661426     0.000000000000000    -0.000000000000000
     0.000002212866376     0.059632323112435     0.151164221474510
     0.000007745032318     0.006760306780039    -0.061954726374514
   4  19
    -0.034361389093435    -0.000002212866376     0.000001106433188
    -0.000000000000000    -0.138055201060451    -0.020171383454483
    -0.000009957898694     0.018319214297398    -0.302177968035422
   4  20
    -0.509079867799823    -0.000007745032318     0.000001106433188
    -0.000014383631447    -2.210433329863913     2.862724377381303
    -0.000015490064635     2.693884885724940    -4.568329862187731
   4  21
    -0.016821103760545    -0.012076718249448     0.009593882175076
    -0.040828491078595    -0.091291802360231    -0.015581898589736
    -0.013693217137441    -0.013415502407197     0.028622320146125
   4  22
    -0.016825529493298     0.012074505383071    -0.009587243575947
     0.040832916811348    -0.091290695927043    -0.015579685723360
     0.013718665100770    -0.013414395974008     0.028621213712937
   4  23
    -2.290991623865198     0.642513497433069     2.923005070342036
     0.513060814411048    -0.374398181530263    -1.320918581058885
     2.772862086700256    -1.022240261197811    -4.042303863677093
   4  24
    -2.291013752528962    -0.642509071700316    -2.922988473844213
    -0.513097326706259    -0.374389330064757    -1.320908623160191
    -2.772908556894161    -1.022233622598682    -4.042288373612458
   5   1
     0.130604980000000     0.000005104000000    -0.000002552000000
    -0.000002552000000    -0.197042472000000     0.270170032000000
    -0.000000000000000     0.041394716000000    -0.069414400000000
   5   2
    -0.029069832000000     0.000003828000000     0.000000000000000
    -0.000005104000000    -0.032335116000000     0.021898712000000
     0.000002552000000     0.005149936000000    -0.043012684000000
   5   3
    -0.011850212000000    -0.000000000000000     0.000000000000000
     0.000002552000000    -0.179091704000000    -0.369196564000000
     0.000001276000000    -0.188111748000000    -0.413417620000000
   5   4
    -0.457809660000000     0.000001276000000    -0.000003828000000
     0.000010208000000    -0.274043968000000    -0.481784424000000
     0.000008932000000     0.067528472000000    -0.122455168000000
   5   5
     6.202134532000000    -0.000030624000000    -0.000044660000000
    -0.000030624000000     8.082175068000000     0.704614856000000
    -0.000044660000000     0.704614856000000     6.740763480000000
   5   6
    -2.484784148000000    -0.000011484000000    -0.000012760000000
    -0.000006380000000     0.029345448000000    -0.445768048000000
    -0.000006380000000    -0.445778256000000    -0.069658116000000
   5   7
     0.035679512000000     0.000000000000000    -0.000001276000000
    -0.000002552000000    -0.059531780000000    -0.043054792000000
    -0.000002552000000    -0.043054792000000    -0.019030264000000
   5   8
     0.063686436000000    -0.000011484000000     0.000002552000000
    -0.000001276000000    -0.115344020000000    -0.007966068000000
     0.000003828000000    -0.007960964000000     0.037291100000000
   5   9
    -0.168668060000000    -0.396730092000000     0.104774912000000
    -0.356996728000000    -0.430602788000000    -0.110227260000000
    -0.042568636000000    -0.069804856000000     0.164196956000000
   5  10
    -0.168656576000000     0.396736472000000    -0.104776188000000
     0.357000556000000    -0.430601512000000    -0.110228536000000
     0.042559704000000    -0.069799752000000     0.164202060000000
   5  11
    -0.057048684000000     0.203447992000000    -0.118347724000000
     0.111775048000000    -0.278816208000000     0.003979844000000
    -0.057345992000000     0.069177064000000     0.242926156000000
   5  12
    -0.057030820000000    -0.203431404000000     0.118356656000000
    -0.111781428000000    -0.278804724000000     0.003984948000000
     0.057353648000000     0.069177064000000     0.242923604000000
   5  13
    -0.263286012000000    -0.214854156000000     0.497324828000000
    -0.214845224000000     0.039715500000000     0.116332920000000
     0.497296756000000     0.116336748000000    -0.547241948000000
   5  14
    -0.263287288000000     0.214849052000000    -0.497308240000000
     0.214836292000000     0.039701464000000     0.116332920000000
    -0.497295480000000     0.116340576000000    -0.547239396000000
   5  15
     0.025975532000000    -0.058597748000000    -0.032097780000000
    -0.058606680000000     0.062410436000000     0.031157368000000
    -0.032107988000000     0.031153540000000     0.004476208000000
   5  16
     0.025990844000000     0.058595196000000     0.032102884000000
     0.058600300000000     0.062419368000000     0.031158644000000
     0.032104160000000     0.031159920000000     0.004474932000000
   5  17
    -0.780094038655773    -0.000002212866376     0.000003319299565
    -0.000015490064635    -2.595488675863133     1.852902722288100
    -0.000007745032318     1.100745015201755    -1.817692698939299
   5  18
    -0.013419928139950    -0.000003319299565     0.000001106433188
    -0.000012170765070    -0.076943576775363     0.122832893256887
    -0.000004425732753    -0.045662497677939    -0.138481177837916
   5  19
    -0.168500923100767    -0.000014383631447    -0.000007745032318
     0.000000000000000    -0.590997968189434    -0.127804097571570
    -0.000002212866376     0.004982268646565     0.003851493928202
   5  20
    -0.271337249346910    -0.000005532165941    -0.000004425732753
     0.000012170765070    -0.128007681278203    -0.213042603959036
    -0.000000000000000    -0.286633688174085     0.187479571578346
   5  21
    -0.049142230054898     0.006302243440115    -0.054699843959339
    -0.054247312785356    -0.045207753637579    -0.022407484927880
     0.158016362209171     0.127931337388216     0.036986955049087
   5  22
    -0.049133378589392    -0.006288966241856     0.054702056825716
     0.054214119789710    -0.045212179370332    -0.022409697794257
    -0.158039597306124     0.127934656687780     0.036985848615899
   5  23
    -0.677288692538899     1.092248714749396     1.262973568558489
     0.569251023874923    -1.278376224971734    -0.660088082194794
     1.077740056352235    -0.744008826655087    -2.061680026306539
   5  24
    -0.677285373239335    -1.092226586085631    -1.262968036392548
    -0.569285323303757    -1.278364054206663    -0.660091401494359
    -1.077788739412517    -0.744002188055958    -2.061677813440163
   6   1
    -0.029063452000000     0.000001276000000     0.000005104000000
    -0.000008932000000    -0.032332564000000     0.021916576000000
    -0.000000000000000     0.005135900000000    -0.043001200000000
   6   2
     0.130610084000000     0.000000000000000     0.000001276000000
     0.000001276000000    -0.197039920000000     0.270178964000000
    -0.000002552000000     0.041381956000000    -0.069405468000000
   6   3
    -0.457827524000000    -0.000007656000000    -0.000002552000000
     0.000001276000000    -0.274035036000000    -0.481795908000000
     0.000000000000000     0.067527196000000    -0.122457720000000
   6   4
    -0.011861696000000    -0.000007656000000     0.000002552000000
     0.000011484000000    -0.179095532000000    -0.369202944000000
     0.000005104000000    -0.188113024000000    -0.413426552000000
   6   5
    -2.484784148000000    -0.000006380000000    -0.000006380000000
    -0.000011484000000     0.029345448000000    -0.445778256000000
    -0.000012760000000    -0.445768048000000    -0.069658116000000
   6   6
     6.202167708000000     0.000012760000000     0.000014036000000
     0.000012760000000     8.082155927999999     0.704611028000000
     0.000014036000000     0.704611028000000     6.740819623999999
   6   7
     0.063681332000000    -0.000006380000000    -0.000002552000000
    -0.000007656000000    -0.115344020000000    -0.007969896000000
    -0.000001276000000    -0.007967344000000     0.037288548000000
   6   8
     0.035671856000000     0.000001276000000    -0.000003828000000
    -0.000001276000000    -0.059531780000000    -0.043058620000000
     0.000000000000000    -0.043057344000000    -0.019032816000000
   6   9
    -0.168661680000000     0.396732644000000    -0.104778740000000
     0.356992900000000    -0.430597684000000    -0.110234916000000
     0.042567360000000    -0.069801028000000     0.164185472000000
   6  10
    -0.168661680000000    -0.396736472000000     0.104773636000000
    -0.356991624000000    -0.430597684000000    -0.110228536000000
    -0.042569912000000    -0.069794648000000     0.164181644000000
   6  11
    -0.057033372000000    -0.203433956000000     0.118359208000000
    -0.111767392000000    -0.278806000000000     0.003993880000000
     0.057344716000000     0.069175788000000     0.242927432000000
   6  12
    -0.057043580000000     0.203447992000000    -0.118354104000000
     0.111771220000000    -0.278804724000000     0.003991328000000
    -0.057348544000000     0.069168132000000     0.242924880000000
   6  13
    -0.263284736000000     0.214863088000000    -0.497312068000000
     0.214841396000000     0.039716776000000     0.116331644000000
    -0.497304412000000     0.116346956000000    -0.547227912000000
   6  14
    -0.263287288000000    -0.214843948000000     0.497321000000000
    -0.214850328000000     0.039712948000000     0.116335472000000
     0.497290376000000     0.116352060000000    -0.547234292000000
   6  15
     0.025987016000000     0.058597748000000     0.032107988000000
     0.058606680000000     0.062411712000000     0.031153540000000
     0.032101608000000     0.031142056000000     0.004476208000000
   6  16
     0.025979360000000    -0.058599024000000    -0.032099056000000
    -0.058606680000000     0.062412988000000     0.031154816000000
    -0.032109264000000     0.031154816000000     0.004478760000000
   6  17
    -0.013422141006326    -0.000011064331882    -0.000001106433188
    -0.000017702931012    -0.076941363908986     0.122838425422828
    -0.000008851465506    -0.045660284811562    -0.138484497137481
   6  18
    -0.780097357955337    -0.000001106433188    -0.000002212866376
    -0.000009957898694    -2.595478717964440     1.852903828721289
    -0.000015490064635     1.100742802335379    -1.817702656837993
   6  19
    -0.271336142913722    -0.000009957898694    -0.000006638599129
    -0.000003319299565    -0.128009894144580    -0.213041497525848
    -0.000004425732753    -0.286639220340026     0.187482890877910
   6  20
    -0.168498710234390    -0.000012170765070    -0.000004425732753
     0.000012170765070    -0.591001287488999    -0.127804097571570
     0.000001106433188     0.004977842913813     0.003850387495014
   6  21
    -0.049136697888957    -0.006292285541421     0.054700950392528
     0.054220758388839    -0.045209966503956    -0.022414123527010
    -0.158038490872936     0.127928018088651     0.036983635749522
   6  22
    -0.049142230054898     0.006301137006927    -0.054698737526151
    -0.054251738518109    -0.045211072937144    -0.022409697794257
     0.158014149342795     0.127926911655463     0.036992487215028
   6  23
    -0.677279841073394    -1.092226586085631    -1.262963610659795
    -0.569253236741299    -1.278376224971734    -0.660088082194794