<?xml version="1.0" encoding="ISO-8859-1"?>
<modeling>
 <generator>
  <i name="program" type="string">vasp </i>
  <i name="version" type="string">5.3.5  </i>
  <i name="subversion" type="string">31Mar14 (build Mar 18 2017 11:34:20) complex                          parallel </i>
  <i name="platform" type="string">LinuxIFC </i>
  <i name="date" type="string">2017 07 29 </i>
  <i name="time" type="string">21:50:42 </i>
 </generator>
 <incar>
  <i type="string" name="SYSTEM"> MoTe2 with Spin orbit Phonon calculatio</i>
  <i type="string" name="PREC">accurate</i>
  <i type="string" name="ALGO"> Normal</i>
  <i type="logical" name="ADDGRID"> T  </i>
  <i type="logical" name="LSORBIT"> T  </i>
  <i type="int" name="ISPIN">     2</i>
  <i type="int" name="ICHARG">     1</i>
  <i type="int" name="NELMDL">    -5</i>
  <i type="int" name="IBRION">     8</i>
  <i name="EDIFF">      0.00001000</i>
  <i type="int" name="NSW">     1</i>
  <i type="int" name="ISIF">     2</i>
  <i type="int" name="ISYM">     0</i>
  <i name="ENCUT">    350.00000000</i>
  <i name="POTIM">      0.50000000</i>
  <i type="logical" name="LREAL"> F  </i>
  <i type="int" name="ISMEAR">     0</i>
  <i name="SIGMA">      0.05000000</i>
  <i type="int" name="NWRITE">     3</i>
  <i type="int" name="LMAXMIX">     4</i>
  <i type="logical" name="LWAVE"> F  </i>
  <i type="logical" name="LCHARG"> F  </i>
 </incar>
 <kpoints>
  <generation param="Monkhorst-Pack">
   <v type="int" name="divisions">      18       18        1 </v>
   <v name="usershift">      0.00000000       0.00000000       0.00000000 </v>
   <v name="genvec1">      0.05555556       0.00000000       0.00000000 </v>
   <v name="genvec2">      0.00000000       0.05555556       0.00000000 </v>
   <v name="genvec3">      0.00000000       0.00000000       1.00000000 </v>
   <v name="shift">      0.50000000       0.50000000       0.00000000 </v>
  </generation>
  <varray name="kpointlist" >
   <v>       0.02777778       0.02777778       0.00000000 </v>
   <v>       0.08333333       0.02777778       0.00000000 </v>
   <v>       0.13888889       0.02777778       0.00000000 </v>
   <v>       0.19444444       0.02777778       0.00000000 </v>
   <v>       0.25000000       0.02777778       0.00000000 </v>
   <v>       0.30555556       0.02777778       0.00000000 </v>
   <v>       0.36111111       0.02777778       0.00000000 </v>
   <v>       0.41666667       0.02777778       0.00000000 </v>
   <v>       0.47222222       0.02777778       0.00000000 </v>
   <v>      -0.47222222       0.02777778       0.00000000 </v>
   <v>      -0.41666667       0.02777778       0.00000000 </v>
   <v>      -0.36111111       0.02777778       0.00000000 </v>
   <v>      -0.30555556       0.02777778       0.00000000 </v>
   <v>      -0.25000000       0.02777778       0.00000000 </v>
   <v>      -0.19444444       0.02777778       0.00000000 </v>
   <v>      -0.13888889       0.02777778       0.00000000 </v>
   <v>      -0.08333333       0.02777778       0.00000000 </v>
   <v>      -0.02777778       0.02777778       0.00000000 </v>
   <v>       0.02777778       0.08333333       0.00000000 </v>
   <v>       0.08333333       0.08333333       0.00000000 </v>
   <v>       0.13888889       0.08333333       0.00000000 </v>
   <v>       0.19444444       0.08333333       0.00000000 </v>
   <v>       0.25000000       0.08333333       0.00000000 </v>
   <v>       0.30555556       0.08333333       0.00000000 </v>
   <v>       0.36111111       0.08333333       0.00000000 </v>
   <v>       0.41666667       0.08333333       0.00000000 </v>
   <v>       0.47222222       0.08333333       0.00000000 </v>
   <v>      -0.47222222       0.08333333       0.00000000 </v>
   <v>      -0.41666667       0.08333333       0.00000000 </v>
   <v>      -0.36111111       0.08333333       0.00000000 </v>
   <v>      -0.30555556       0.08333333       0.00000000 </v>
   <v>      -0.25000000       0.08333333       0.00000000 </v>
   <v>      -0.19444444       0.08333333       0.00000000 </v>
   <v>      -0.13888889       0.08333333       0.00000000 </v>
   <v>      -0.08333333       0.08333333       0.00000000 </v>
   <v>      -0.02777778       0.08333333       0.00000000 </v>
   <v>       0.02777778       0.13888889       0.00000000 </v>
   <v>       0.08333333       0.13888889       0.00000000 </v>
   <v>       0.13888889       0.13888889       0.00000000 </v>
   <v>       0.19444444       0.13888889       0.00000000 </v>
   <v>       0.25000000       0.13888889       0.00000000 </v>
   <v>       0.30555556       0.13888889       0.00000000 </v>
   <v>       0.36111111       0.13888889       0.00000000 </v>
   <v>       0.41666667       0.13888889       0.00000000 </v>
   <v>       0.47222222       0.13888889       0.00000000 </v>
   <v>      -0.47222222       0.13888889       0.00000000 </v>
   <v>      -0.41666667       0.13888889       0.00000000 </v>
   <v>      -0.36111111       0.13888889       0.00000000 </v>
   <v>      -0.30555556       0.13888889       0.00000000 </v>
   <v>      -0.25000000       0.13888889       0.00000000 </v>
   <v>      -0.19444444       0.13888889       0.00000000 </v>
   <v>      -0.13888889       0.13888889       0.00000000 </v>
   <v>      -0.08333333       0.13888889       0.00000000 </v>
   <v>      -0.02777778       0.13888889       0.00000000 </v>
   <v>       0.02777778       0.19444444       0.00000000 </v>
   <v>       0.08333333       0.19444444       0.00000000 </v>
   <v>       0.13888889       0.19444444       0.00000000 </v>
   <v>       0.19444444       0.19444444       0.00000000 </v>
   <v>       0.25000000       0.19444444       0.00000000 </v>
   <v>       0.30555556       0.19444444       0.00000000 </v>
   <v>       0.36111111       0.19444444       0.00000000 </v>
   <v>       0.41666667       0.19444444       0.00000000 </v>
   <v>       0.47222222       0.19444444       0.00000000 </v>
   <v>      -0.47222222       0.19444444       0.00000000 </v>
   <v>      -0.41666667       0.19444444       0.00000000 </v>
   <v>      -0.36111111       0.19444444       0.00000000 </v>
   <v>      -0.30555556       0.19444444       0.00000000 </v>
   <v>      -0.25000000       0.19444444       0.00000000 </v>
   <v>      -0.19444444       0.19444444       0.00000000 </v>
   <v>      -0.13888889       0.19444444       0.00000000 </v>
   <v>      -0.08333333       0.19444444       0.00000000 </v>
   <v>      -0.02777778       0.19444444       0.00000000 </v>
   <v>       0.02777778       0.25000000       0.00000000 </v>
   <v>       0.08333333       0.25000000       0.00000000 </v>
   <v>       0.13888889       0.25000000       0.00000000 </v>
   <v>       0.19444444       0.25000000       0.00000000 </v>
   <v>       0.25000000       0.25000000       0.00000000 </v>
   <v>       0.30555556       0.25000000       0.00000000 </v>
   <v>       0.36111111       0.25000000       0.00000000 </v>
   <v>       0.41666667       0.25000000       0.00000000 </v>
   <v>       0.47222222       0.25000000       0.00000000 </v>
   <v>      -0.47222222       0.25000000       0.00000000 </v>
   <v>      -0.41666667       0.25000000       0.00000000 </v>
   <v>      -0.36111111       0.25000000       0.00000000 </v>
   <v>      -0.30555556       0.25000000       0.00000000 </v>
   <v>      -0.25000000       0.25000000       0.00000000 </v>
   <v>      -0.19444444       0.25000000       0.00000000 </v>
   <v>      -0.13888889       0.25000000       0.00000000 </v>
   <v>      -0.08333333       0.25000000       0.00000000 </v>
   <v>      -0.02777778       0.25000000       0.00000000 </v>
   <v>       0.02777778       0.30555556       0.00000000 </v>
   <v>       0.08333333       0.30555556       0.00000000 </v>
   <v>       0.13888889       0.30555556       0.00000000 </v>
   <v>       0.19444444       0.30555556       0.00000000 </v>
   <v>       0.25000000       0.30555556       0.00000000 </v>
   <v>       0.30555556       0.30555556       0.00000000 </v>
   <v>       0.36111111       0.30555556       0.00000000 </v>
   <v>       0.41666667       0.30555556       0.00000000 </v>
   <v>       0.47222222       0.30555556       0.00000000 </v>
   <v>      -0.47222222       0.30555556       0.00000000 </v>
   <v>      -0.41666667       0.30555556       0.00000000 </v>
   <v>      -0.36111111       0.30555556       0.00000000 </v>
   <v>      -0.30555556       0.30555556       0.00000000 </v>
   <v>      -0.25000000       0.30555556       0.00000000 </v>
   <v>      -0.19444444       0.30555556       0.00000000 </v>
   <v>      -0.13888889       0.30555556       0.00000000 </v>
   <v>      -0.08333333       0.30555556       0.00000000 </v>
   <v>      -0.02777778       0.30555556       0.00000000 </v>
   <v>       0.02777778       0.36111111       0.00000000 </v>
   <v>       0.08333333       0.36111111       0.00000000 </v>
   <v>       0.13888889       0.36111111       0.00000000 </v>
   <v>       0.19444444       0.36111111       0.00000000 </v>
   <v>       0.25000000       0.36111111       0.00000000 </v>
   <v>       0.30555556       0.36111111       0.00000000 </v>
   <v>       0.36111111       0.36111111       0.00000000 </v>
   <v>       0.41666667       0.36111111       0.00000000 </v>
   <v>       0.47222222       0.36111111       0.00000000 </v>
   <v>      -0.47222222       0.36111111       0.00000000 </v>
   <v>      -0.41666667       0.36111111       0.00000000 </v>
   <v>      -0.36111111       0.36111111       0.00000000 </v>
   <v>      -0.30555556       0.36111111       0.00000000 </v>
   <v>      -0.25000000       0.36111111       0.00000000 </v>
   <v>      -0.19444444       0.36111111       0.00000000 </v>
   <v>      -0.13888889       0.36111111       0.00000000 </v>
   <v>      -0.08333333       0.36111111       0.00000000 </v>
   <v>      -0.02777778       0.36111111       0.00000000 </v>
   <v>       0.02777778       0.41666667       0.00000000 </v>
   <v>       0.08333333       0.41666667       0.00000000 </v>
   <v>       0.13888889       0.41666667       0.00000000 </v>
   <v>       0.19444444       0.41666667       0.00000000 </v>
   <v>       0.25000000       0.41666667       0.00000000 </v>
   <v>       0.30555556       0.41666667       0.00000000 </v>
   <v>       0.36111111       0.41666667       0.00000000 </v>
   <v>       0.41666667       0.41666667       0.00000000 </v>
   <v>       0.47222222       0.41666667       0.00000000 </v>
   <v>      -0.47222222       0.41666667       0.00000000 </v>
   <v>      -0.41666667       0.41666667       0.00000000 </v>
   <v>      -0.36111111       0.41666667       0.00000000 </v>
   <v>      -0.30555556       0.41666667       0.00000000 </v>
   <v>      -0.25000000       0.41666667       0.00000000 </v>
   <v>      -0.19444444       0.41666667       0.00000000 </v>
   <v>      -0.13888889       0.41666667       0.00000000 </v>
   <v>      -0.08333333       0.41666667       0.00000000 </v>
   <v>      -0.02777778       0.41666667       0.00000000 </v>
   <v>       0.02777778       0.47222222       0.00000000 </v>
   <v>       0.08333333       0.47222222       0.00000000 </v>
   <v>       0.13888889       0.47222222       0.00000000 </v>
   <v>       0.19444444       0.47222222       0.00000000 </v>
   <v>       0.25000000       0.47222222       0.00000000 </v>
   <v>       0.30555556       0.47222222       0.00000000 </v>
   <v>       0.36111111       0.47222222       0.00000000 </v>
   <v>       0.41666667       0.47222222       0.00000000 </v>
   <v>       0.47222222       0.47222222       0.00000000 </v>
   <v>      -0.47222222       0.47222222       0.00000000 </v>
   <v>      -0.41666667       0.47222222       0.00000000 </v>
   <v>      -0.36111111       0.47222222       0.00000000 </v>
   <v>      -0.30555556       0.47222222       0.00000000 </v>
   <v>      -0.25000000       0.47222222       0.00000000 </v>
   <v>      -0.19444444       0.47222222       0.00000000 </v>
   <v>      -0.13888889       0.47222222       0.00000000 </v>
   <v>      -0.08333333       0.47222222       0.00000000 </v>
   <v>      -0.02777778       0.47222222       0.00000000 </v>
   <v>       0.02777778      -0.47222222       0.00000000 </v>
   <v>       0.08333333      -0.47222222       0.00000000 </v>
   <v>       0.13888889      -0.47222222       0.00000000 </v>
   <v>       0.19444444      -0.47222222       0.00000000 </v>
   <v>       0.25000000      -0.47222222       0.00000000 </v>
   <v>       0.30555556      -0.47222222       0.00000000 </v>
   <v>       0.36111111      -0.47222222       0.00000000 </v>
   <v>       0.41666667      -0.47222222       0.00000000 </v>
   <v>       0.47222222      -0.47222222       0.00000000 </v>
   <v>      -0.47222222      -0.47222222       0.00000000 </v>
   <v>      -0.41666667      -0.47222222       0.00000000 </v>
   <v>      -0.36111111      -0.47222222       0.00000000 </v>
   <v>      -0.30555556      -0.47222222       0.00000000 </v>
   <v>      -0.25000000      -0.47222222       0.00000000 </v>
   <v>      -0.19444444      -0.47222222       0.00000000 </v>
   <v>      -0.13888889      -0.47222222       0.00000000 </v>
   <v>      -0.08333333      -0.47222222       0.00000000 </v>
   <v>      -0.02777778      -0.47222222       0.00000000 </v>
   <v>       0.02777778      -0.41666667       0.00000000 </v>
   <v>       0.08333333      -0.41666667       0.00000000 </v>
   <v>       0.13888889      -0.41666667       0.00000000 </v>
   <v>       0.19444444      -0.41666667       0.00000000 </v>
   <v>       0.25000000      -0.41666667       0.00000000 </v>
   <v>       0.30555556      -0.41666667       0.00000000 </v>
   <v>       0.36111111      -0.41666667       0.00000000 </v>
   <v>       0.41666667      -0.41666667       0.00000000 </v>
   <v>       0.47222222      -0.41666667       0.00000000 </v>
   <v>      -0.47222222      -0.41666667       0.00000000 </v>
   <v>      -0.41666667      -0.41666667       0.00000000 </v>
   <v>      -0.36111111      -0.41666667       0.00000000 </v>
   <v>      -0.30555556      -0.41666667       0.00000000 </v>
   <v>      -0.25000000      -0.41666667       0.00000000 </v>
   <v>      -0.19444444      -0.41666667       0.00000000 </v>
   <v>      -0.13888889      -0.41666667       0.00000000 </v>
   <v>      -0.08333333      -0.41666667       0.00000000 </v>
   <v>      -0.02777778      -0.41666667       0.00000000 </v>
   <v>       0.02777778      -0.36111111       0.00000000 </v>
   <v>       0.08333333      -0.36111111       0.00000000 </v>
   <v>       0.13888889      -0.36111111       0.00000000 </v>
   <v>       0.19444444      -0.36111111       0.00000000 </v>
   <v>       0.25000000      -0.36111111       0.00000000 </v>
   <v>       0.30555556      -0.36111111       0.00000000 </v>
   <v>       0.36111111      -0.36111111       0.00000000 </v>
   <v>       0.41666667      -0.36111111       0.00000000 </v>
   <v>       0.47222222      -0.36111111       0.00000000 </v>
   <v>      -0.47222222      -0.36111111       0.00000000 </v>
   <v>      -0.41666667      -0.36111111       0.00000000 </v>
   <v>      -0.36111111      -0.36111111       0.00000000 </v>
   <v>      -0.30555556      -0.36111111       0.00000000 </v>
   <v>      -0.25000000      -0.36111111       0.00000000 </v>
   <v>      -0.19444444      -0.36111111       0.00000000 </v>
   <v>      -0.13888889      -0.36111111       0.00000000 </v>
   <v>      -0.08333333      -0.36111111       0.00000000 </v>
   <v>      -0.02777778      -0.36111111       0.00000000 </v>
   <v>       0.02777778      -0.30555556       0.00000000 </v>
   <v>       0.08333333      -0.30555556       0.00000000 </v>
   <v>       0.13888889      -0.30555556       0.00000000 </v>
   <v>       0.19444444      -0.30555556       0.00000000 </v>
   <v>       0.25000000      -0.30555556       0.00000000 </v>
   <v>       0.30555556      -0.30555556       0.00000000 </v>
   <v>       0.36111111      -0.30555556       0.00000000 </v>
   <v>       0.41666667      -0.30555556       0.00000000 </v>
   <v>       0.47222222      -0.30555556       0.00000000 </v>
   <v>      -0.47222222      -0.30555556       0.00000000 </v>
   <v>      -0.41666667      -0.30555556       0.00000000 </v>
   <v>      -0.36111111      -0.30555556       0.00000000 </v>
   <v>      -0.30555556      -0.30555556       0.00000000 </v>
   <v>      -0.25000000      -0.30555556       0.00000000 </v>
   <v>      -0.19444444      -0.30555556       0.00000000 </v>
   <v>      -0.13888889      -0.30555556       0.00000000 </v>
   <v>      -0.08333333      -0.30555556       0.00000000 </v>
   <v>      -0.02777778      -0.30555556       0.00000000 </v>
   <v>       0.02777778      -0.25000000       0.00000000 </v>
   <v>       0.08333333      -0.25000000       0.00000000 </v>
   <v>       0.13888889      -0.25000000       0.00000000 </v>
   <v>       0.19444444      -0.25000000       0.00000000 </v>
   <v>       0.25000000      -0.25000000       0.00000000 </v>
   <v>       0.30555556      -0.25000000       0.00000000 </v>
   <v>       0.36111111      -0.25000000       0.00000000 </v>
   <v>       0.41666667      -0.25000000       0.00000000 </v>
   <v>       0.47222222      -0.25000000       0.00000000 </v>
   <v>      -0.47222222      -0.25000000       0.00000000 </v>
   <v>      -0.41666667      -0.25000000       0.00000000 </v>
   <v>      -0.36111111      -0.25000000       0.00000000 </v>
   <v>      -0.30555556      -0.25000000       0.00000000 </v>
   <v>      -0.25000000      -0.25000000       0.00000000 </v>
   <v>      -0.19444444      -0.25000000       0.00000000 </v>
   <v>      -0.13888889      -0.25000000       0.00000000 </v>
   <v>      -0.08333333      -0.25000000       0.00000000 </v>
   <v>      -0.02777778      -0.25000000       0.00000000 </v>
   <v>       0.02777778      -0.19444444       0.00000000 </v>
   <v>       0.08333333      -0.19444444       0.00000000 </v>
   <v>       0.13888889      -0.19444444       0.00000000 </v>
   <v>       0.19444444      -0.19444444       0.00000000 </v>
   <v>       0.25000000      -0.19444444       0.00000000 </v>
   <v>       0.30555556      -0.19444444       0.00000000 </v>
   <v>       0.36111111      -0.19444444       0.00000000 </v>
   <v>       0.41666667      -0.19444444       0.00000000 </v>
   <v>       0.47222222      -0.19444444       0.00000000 </v>
   <v>      -0.47222222      -0.19444444       0.00000000 </v>
   <v>      -0.41666667      -0.19444444       0.00000000 </v>
   <v>      -0.36111111      -0.19444444       0.00000000 </v>
   <v>      -0.30555556      -0.19444444       0.00000000 </v>
   <v>      -0.25000000      -0.19444444       0.00000000 </v>
   <v>      -0.19444444      -0.19444444       0.00000000 </v>
   <v>      -0.13888889      -0.19444444       0.00000000 </v>
   <v>      -0.08333333      -0.19444444       0.00000000 </v>
   <v>      -0.02777778      -0.19444444       0.00000000 </v>
   <v>       0.02777778      -0.13888889       0.00000000 </v>
   <v>       0.08333333      -0.13888889       0.00000000 </v>
   <v>       0.13888889      -0.13888889       0.00000000 </v>
   <v>       0.19444444      -0.13888889       0.00000000 </v>
   <v>       0.25000000      -0.13888889       0.00000000 </v>
   <v>       0.30555556      -0.13888889       0.00000000 </v>
   <v>       0.36111111      -0.13888889       0.00000000 </v>
   <v>       0.41666667      -0.13888889       0.00000000 </v>
   <v>       0.47222222      -0.13888889       0.00000000 </v>
   <v>      -0.47222222      -0.13888889       0.00000000 </v>
   <v>      -0.41666667      -0.13888889       0.00000000 </v>
   <v>      -0.36111111      -0.13888889       0.00000000 </v>
   <v>      -0.30555556      -0.13888889       0.00000000 </v>
   <v>      -0.25000000      -0.13888889       0.00000000 </v>
   <v>      -0.19444444      -0.13888889       0.00000000 </v>
   <v>      -0.13888889      -0.13888889       0.00000000 </v>
   <v>      -0.08333333      -0.13888889       0.00000000 </v>
   <v>      -0.02777778      -0.13888889       0.00000000 </v>
   <v>       0.02777778      -0.08333333       0.00000000 </v>
   <v>       0.08333333      -0.08333333       0.00000000 </v>
   <v>       0.13888889      -0.08333333       0.00000000 </v>
   <v>       0.19444444      -0.08333333       0.00000000 </v>
   <v>       0.25000000      -0.08333333       0.00000000 </v>
   <v>       0.30555556      -0.08333333       0.00000000 </v>
   <v>       0.36111111      -0.08333333       0.00000000 </v>
   <v>       0.41666667      -0.08333333       0.00000000 </v>
   <v>       0.47222222      -0.08333333       0.00000000 </v>
   <v>      -0.47222222      -0.08333333       0.00000000 </v>
   <v>      -0.41666667      -0.08333333       0.00000000 </v>
   <v>      -0.36111111      -0.08333333       0.00000000 </v>
   <v>      -0.30555556      -0.08333333       0.00000000 </v>
   <v>      -0.25000000      -0.08333333       0.00000000 </v>
   <v>      -0.19444444      -0.08333333       0.00000000 </v>
   <v>      -0.13888889      -0.08333333       0.00000000 </v>
   <v>      -0.08333333      -0.08333333       0.00000000 </v>
   <v>      -0.02777778      -0.08333333       0.00000000 </v>
   <v>       0.02777778      -0.02777778       0.00000000 </v>
   <v>       0.08333333      -0.02777778       0.00000000 </v>
   <v>       0.13888889      -0.02777778       0.00000000 </v>
   <v>       0.19444444      -0.02777778       0.00000000 </v>
   <v>       0.25000000      -0.02777778       0.00000000 </v>
   <v>       0.30555556      -0.02777778       0.00000000 </v>
   <v>       0.36111111      -0.02777778       0.00000000 </v>
   <v>       0.41666667      -0.02777778       0.00000000 </v>
   <v>       0.47222222      -0.02777778       0.00000000 </v>
   <v>      -0.47222222      -0.02777778       0.00000000 </v>
   <v>      -0.41666667      -0.02777778       0.00000000 </v>
   <v>      -0.36111111      -0.02777778       0.00000000 </v>
   <v>      -0.30555556      -0.02777778       0.00000000 </v>
   <v>      -0.25000000      -0.02777778       0.00000000 </v>
   <v>      -0.19444444      -0.02777778       0.00000000 </v>
   <v>      -0.13888889      -0.02777778       0.00000000 </v>
   <v>      -0.08333333      -0.02777778       0.00000000 </v>
   <v>      -0.02777778      -0.02777778       0.00000000 </v>
  </varray>
  <varray name="weights" >
   <v>       0.00308642 </v>
   <v>       0.00308642 </v>
   <v>       0.00308642 </v>
   <v>       0.00308642 </v>
   <v>       0.00308642 </v>
   <v>       0.00308642 </v>
   <v>       0.00308642 </v>
   <v>       0.00308642 </v>
   <v>       0.00308642 </v>
   <v>       0.00308642 </v>
   <v>       0.00308642 </v>
   <v>       0.00308642 </v>
   <v>       0.00308642 </v>
   <v>       0.00308642 </v>
   <v>       0.00308642 </v>
   <v>       0.00308642 </v>
   <v>       0.00308642 </v>
   <v>       0.00308642 </v>
   <v>       0.00308642 </v>
   <v>       0.00308642 </v>
   <v>       0.00308642 </v>
   <v>       0.00308642 </v>
   <v>       0.00308642 </v>
   <v>       0.00308642 </v>
   <v>       0.00308642 </v>
   <v>       0.00308642 </v>
   <v>       0.00308642 </v>
   <v>       0.00308642 </v>
   <v>       0.00308642 </v>
   <v>       0.00308642 </v>
   <v>       0.00308642 </v>
   <v>       0.00308642 </v>
   <v>       0.00308642 </v>
   <v>       0.00308642 </v>
   <v>       0.00308642 </v>
   <v>       0.00308642 </v>
   <v>       0.00308642 </v>
   <v>       0.00308642 </v>
   <v>       0.00308642 </v>
   <v>       0.00308642 </v>
   <v>       0.00308642 </v>
   <v>       0.00308642 </v>
   <v>       0.00308642 </v>
   <v>       0.00308642 </v>
   <v>       0.00308642 </v>
   <v>       0.00308642 </v>
   <v>       0.00308642 </v>
   <v>       0.00308642 </v>
   <v>       0.00308642 </v>
   <v>       0.00308642 </v>
   <v>       0.00308642 </v>
   <v>       0.00308642 </v>
   <v>       0.00308642 </v>
   <v>       0.00308642 </v>
   <v>       0.00308642 </v>
   <v>       0.00308642 </v>
   <v>       0.00308642 </v>
   <v>       0.00308642 </v>
   <v>       0.00308642 </v>
   <v>       0.00308642 </v>
   <v>       0.00308642 </v>
   <v>       0.00308642 </v>
   <v>       0.00308642 </v>
   <v>       0.00308642 </v>
   <v>       0.00308642 </v>
   <v>       0.00308642 </v>
   <v>       0.00308642 </v>
   <v>       0.00308642 </v>
   <v>       0.00308642 </v>
   <v>       0.00308642 </v>
   <v>       0.00308642 </v>
   <v>       0.00308642 </v>
   <v>       0.00308642 </v>
   <v>       0.00308642 </v>
   <v>       0.00308642 </v>
   <v>       0.00308642 </v>
   <v>       0.00308642 </v>
   <v>       0.00308642 </v>
   <v>       0.00308642 </v>
   <v>       0.00308642 </v>
   <v>       0.00308642 </v>
   <v>       0.00308642 </v>
   <v>       0.00308642 </v>
   <v>       0.00308642 </v>
   <v>       0.00308642 </v>
   <v>       0.00308642 </v>
   <v>       0.00308642 </v>
   <v>       0.00308642 </v>
   <v>       0.00308642 </v>
   <v>       0.00308642 </v>
   <v>       0.00308642 </v>
   <v>       0.00308642 </v>
   <v>       0.00308642 </v>
   <v>       0.00308642 </v>
   <v>       0.00308642 </v>
   <v>       0.00308642 </v>
   <v>       0.00308642 </v>
   <v>       0.00308642 </v>
   <v>       0.00308642 </v>
   <v>       0.00308642 </v>
   <v>       0.00308642 </v>
   <v>       0.00308642 </v>
   <v>       0.00308642 </v>
   <v>       0.00308642 </v>
   <v>       0.00308642 </v>
   <v>       0.00308642 </v>
   <v>       0.00308642 </v>
   <v>       0.00308642 </v>
   <v>       0.00308642 </v>
   <v>       0.00308642 </v>
   <v>       0.00308642 </v>
   <v>       0.00308642 </v>
   <v>       0.00308642 </v>
   <v>       0.00308642 </v>
   <v>       0.00308642 </v>
   <v>       0.00308642 </v>
   <v>       0.00308642 </v>
   <v>       0.00308642 </v>
   <v>       0.00308642 </v>
   <v>       0.00308642 </v>
   <v>       0.00308642 </v>
   <v>       0.00308642 </v>
   <v>       0.00308642 </v>
   <v>       0.00308642 </v>
   <v>       0.00308642 </v>
   <v>       0.00308642 </v>
   <v>       0.00308642 </v>
   <v>       0.00308642 </v>
   <v>       0.00308642 </v>
   <v>       0.00308642 </v>
   <v>       0.00308642 </v>
   <v>       0.00308642 </v>
   <v>       0.00308642 </v>
   <v>       0.00308642 </v>
   <v>       0.00308642 </v>
   <v>       0.00308642 </v>
   <v>       0.00308642 </v>
   <v>       0.00308642 </v>
   <v>       0.00308642 </v>
   <v>       0.00308642 </v>
   <v>       0.00308642 </v>
   <v>       0.00308642 </v>
   <v>       0.00308642 </v>
   <v>       0.00308642 </v>
   <v>       0.00308642 </v>
   <v>       0.00308642 </v>
   <v>       0.00308642 </v>
   <v>       0.00308642 </v>
   <v>       0.00308642 </v>
   <v>       0.00308642 </v>
   <v>       0.00308642 </v>
   <v>       0.00308642 </v>
   <v>       0.00308642 </v>
   <v>       0.00308642 </v>
   <v>       0.00308642 </v>
   <v>       0.00308642 </v>
   <v>       0.00308642 </v>
   <v>       0.00308642 </v>
   <v>       0.00308642 </v>
   <v>       0.00308642 </v>
   <v>       0.00308642 </v>
   <v>       0.00308642 </v>
   <v>       0.00308642 </v>
   <v>       0.00308642 </v>
   <v>       0.00308642 </v>
   <v>       0.00308642 </v>
   <v>       0.00308642 </v>
   <v>       0.00308642 </v>
   <v>       0.00308642 </v>
   <v>       0.00308642 </v>
   <v>       0.00308642 </v>
   <v>       0.00308642 </v>
   <v>       0.00308642 </v>
   <v>       0.00308642 </v>
   <v>       0.00308642 </v>
   <v>       0.00308642 </v>
   <v>       0.00308642 </v>
   <v>       0.00308642 </v>
   <v>       0.00308642 </v>
   <v>       0.00308642 </v>
   <v>       0.00308642 </v>
   <v>       0.00308642 </v>
   <v>       0.00308642 </v>
   <v>       0.00308642 </v>
   <v>       0.00308642 </v>
   <v>       0.00308642 </v>
   <v>       0.00308642 </v>
   <v>       0.00308642 </v>
   <v>       0.00308642 </v>
   <v>       0.00308642 </v>
   <v>       0.00308642 </v>
   <v>       0.00308642 </v>
   <v>       0.00308642 </v>
   <v>       0.00308642 </v>
   <v>       0.00308642 </v>
   <v>       0.00308642 </v>
   <v>       0.00308642 </v>
   <v>       0.00308642 </v>
   <v>       0.00308642 </v>
   <v>       0.00308642 </v>
   <v>       0.00308642 </v>
   <v>       0.00308642 </v>
   <v>       0.00308642 </v>
   <v>       0.00308642 </v>
   <v>       0.00308642 </v>
   <v>       0.00308642 </v>
   <v>       0.00308642 </v>
   <v>       0.00308642 </v>
   <v>       0.00308642 </v>
   <v>       0.00308642 </v>
   <v>       0.00308642 </v>
   <v>       0.00308642 </v>
   <v>       0.00308642 </v>
   <v>       0.00308642 </v>
   <v>       0.00308642 </v>
   <v>       0.00308642 </v>
   <v>       0.00308642 </v>
   <v>       0.00308642 </v>
   <v>       0.00308642 </v>
   <v>       0.00308642 </v>
   <v>       0.00308642 </v>
   <v>       0.00308642 </v>
   <v>       0.00308642 </v>
   <v>       0.00308642 </v>
   <v>       0.00308642 </v>
   <v>       0.00308642 </v>
   <v>       0.00308642 </v>
   <v>       0.00308642 </v>
   <v>       0.00308642 </v>
   <v>       0.00308642 </v>
   <v>       0.00308642 </v>
   <v>       0.00308642 </v>
   <v>       0.00308642 </v>
   <v>       0.00308642 </v>
   <v>       0.00308642 </v>
   <v>       0.00308642 </v>
   <v>       0.00308642 </v>
   <v>       0.00308642 </v>
   <v>       0.00308642 </v>
   <v>       0.00308642 </v>
   <v>       0.00308642 </v>
   <v>       0.00308642 </v>
   <v>       0.00308642 </v>
   <v>       0.00308642 </v>
   <v>       0.00308642 </v>
   <v>       0.00308642 </v>
   <v>       0.00308642 </v>
   <v>       0.00308642 </v>
   <v>       0.00308642 </v>
   <v>       0.00308642 </v>
   <v>       0.00308642 </v>
   <v>       0.00308642 </v>
   <v>       0.00308642 </v>
   <v>       0.00308642 </v>
   <v>       0.00308642 </v>
   <v>       0.00308642 </v>
   <v>       0.00308642 </v>
   <v>       0.00308642 </v>
   <v>       0.00308642 </v>
   <v>       0.00308642 </v>
   <v>       0.00308642 </v>
   <v>       0.00308642 </v>
   <v>       0.00308642 </v>
   <v>       0.00308642 </v>
   <v>       0.00308642 </v>
   <v>       0.00308642 </v>
   <v>       0.00308642 </v>
   <v>       0.00308642 </v>
   <v>       0.00308642 </v>
   <v>       0.00308642 </v>
   <v>       0.00308642 </v>
   <v>       0.00308642 </v>
   <v>       0.00308642 </v>
   <v>       0.00308642 </v>
   <v>       0.00308642 </v>
   <v>       0.00308642 </v>
   <v>       0.00308642 </v>
   <v>       0.00308642 </v>
   <v>       0.00308642 </v>
   <v>       0.00308642 </v>
   <v>       0.00308642 </v>
   <v>       0.00308642 </v>
   <v>       0.00308642 </v>
   <v>       0.00308642 </v>
   <v>       0.00308642 </v>
   <v>       0.00308642 </v>
   <v>       0.00308642 </v>
   <v>       0.00308642 </v>
   <v>       0.00308642 </v>
   <v>       0.00308642 </v>
   <v>       0.00308642 </v>
   <v>       0.00308642 </v>
   <v>       0.00308642 </v>
   <v>       0.00308642 </v>
   <v>       0.00308642 </v>
   <v>       0.00308642 </v>
   <v>       0.00308642 </v>
   <v>       0.00308642 </v>
   <v>       0.00308642 </v>
   <v>       0.00308642 </v>
   <v>       0.00308642 </v>
   <v>       0.00308642 </v>
   <v>       0.00308642 </v>
   <v>       0.00308642 </v>
   <v>       0.00308642 </v>
   <v>       0.00308642 </v>
   <v>       0.00308642 </v>
   <v>       0.00308642 </v>
   <v>       0.00308642 </v>
   <v>       0.00308642 </v>
   <v>       0.00308642 </v>
   <v>       0.00308642 </v>
   <v>       0.00308642 </v>
   <v>       0.00308642 </v>
   <v>       0.00308642 </v>
   <v>       0.00308642 </v>
   <v>       0.00308642 </v>
   <v>       0.00308642 </v>
   <v>       0.00308642 </v>
   <v>       0.00308642 </v>
   <v>       0.00308642 </v>
   <v>       0.00308642 </v>
   <v>       0.00308642 </v>
   <v>       0.00308642 </v>
  </varray>
 </kpoints>
 <parameters>
  <separator name="general" >
   <i type="string" name="SYSTEM">MoTe2 with Spin orbit Phonon calculatio</i>
   <i type="logical" name="LCOMPAT"> F  </i>
  </separator>
  <separator name="electronic" >
   <i type="string" name="PREC">accura</i>
   <i name="ENMAX">    350.00000000</i>
   <i name="ENAUG">    368.79200000</i>
   <i name="EDIFF">      0.00001000</i>
   <i type="int" name="IALGO">    38</i>
   <i type="int" name="IWAVPR">    11</i>
   <i type="int" name="NBANDS">   224</i>
   <i name="NELECT">    144.00000000</i>
   <i type="int" name="TURBO">     0</i>
   <i type="int" name="IRESTART">     0</i>
   <i type="int" name="NREBOOT">     0</i>
   <i type="int" name="NMIN">     0</i>
   <i name="EREF">      0.00000000</i>
   <separator name="electronic smearing" >
    <i type="int" name="ISMEAR">     0</i>
    <i name="SIGMA">      0.05000000</i>
    <i name="KSPACING">      0.50000000</i>
    <i type="logical" name="KGAMMA"> T  </i>
   </separator>
   <separator name="electronic projectors" >
    <i type="logical" name="LREAL"> F  </i>
    <v name="ROPT">      0.00000000      0.00000000</v>
    <i type="int" name="LMAXPAW">  -100</i>
    <i type="int" name="LMAXMIX">     4</i>
    <i type="logical" name="NLSPLINE"> F  </i>
   </separator>
   <separator name="electronic startup" >
    <i type="int" name="ISTART">     0</i>
    <i type="int" name="ICHARG">     1</i>
    <i type="int" name="INIWAV">     1</i>
   </separator>
   <separator name="electronic spin" >
    <i type="int" name="ISPIN">     1</i>
    <i type="logical" name="LNONCOLLINEAR"> T  </i>
    <v name="MAGMOM">      1.00000000      1.00000000      1.00000000      1.00000000      1.00000000      1.00000000      1.00000000      1.00000000      1.00000000      1.00000000      1.00000000      1.00000000      1.00000000      1.00000000      1.00000000      1.00000000      1.00000000      1.00000000      1.00000000      1.00000000
      1.00000000      1.00000000      1.00000000      1.00000000      1.00000000      1.00000000      1.00000000      1.00000000      1.00000000      1.00000000      1.00000000      1.00000000      1.00000000      1.00000000      1.00000000      1.00000000      1.00000000      1.00000000      1.00000000      1.00000000
      1.00000000      1.00000000      1.00000000      1.00000000      1.00000000      1.00000000      1.00000000      1.00000000      1.00000000      1.00000000      1.00000000      1.00000000      1.00000000      1.00000000      1.00000000      1.00000000      1.00000000      1.00000000      1.00000000      1.00000000
      1.00000000      1.00000000      1.00000000      1.00000000      1.00000000      1.00000000      1.00000000      1.00000000      1.00000000      1.00000000      1.00000000      1.00000000</v>
    <i name="NUPDOWN">     -1.00000000</i>
    <i type="logical" name="LSORBIT"> T  </i>
    <v name="SAXIS">      0.00000000      0.00000000      1.00000000</v>
    <i type="logical" name="LSPIRAL"> F  </i>
    <v name="QSPIRAL">      0.00000000      0.00000000      0.00000000</v>
    <i type="logical" name="LZEROZ"> F  </i>
   </separator>
   <separator name="electronic exchange-correlation" >
    <i type="logical" name="LASPH"> F  </i>
    <i type="logical" name="LMETAGGA"> F  </i>
   </separator>
   <separator name="electronic convergence" >
    <i type="int" name="NELM">    60</i>
    <i type="int" name="NELMDL">    -5</i>
    <i type="int" name="NELMIN">     2</i>
    <i name="ENINI">    350.00000000</i>
    <separator name="electronic convergence detail" >
     <i type="logical" name="LDIAG"> T  </i>
     <i type="logical" name="LSUBROT"> F  </i>
     <i name="WEIMIN">      0.00100000</i>
     <i name="EBREAK">      0.00000001</i>
     <i name="DEPER">      0.30000000</i>
     <i type="int" name="NRMM">     4</i>
     <i name="TIME">      0.40000000</i>
    </separator>
   </separator>
   <separator name="electronic mixer" >
    <i name="AMIX">      0.40000000</i>
    <i name="BMIX">      1.00000000</i>
    <i name="AMIN">      0.10000000</i>
    <i name="AMIX_MAG">      1.60000000</i>
    <i name="BMIX_MAG">      1.00000000</i>
    <separator name="electronic mixer details" >
     <i type="int" name="IMIX">     4</i>
     <i type="int" name="MAXMIX">   -45</i>
     <i name="WC">    100.00000000</i>
     <i type="int" name="INIMIX">     1</i>
     <i type="int" name="MIXPRE">     1</i>
     <i type="int" name="MREMOVE">     5</i>
    </separator>
   </separator>
   <separator name="electronic dipolcorrection" >
    <i type="logical" name="LDIPOL"> F  </i>
    <i type="logical" name="LMONO"> F  </i>
    <i type="int" name="IDIPOL">     0</i>
    <i name="EPSILON">      1.00000000</i>
    <v name="DIPOL">   -100.00000000   -100.00000000   -100.00000000</v>
    <i name="EFIELD">      0.00000000</i>
   </separator>
  </separator>
  <separator name="grids" >
   <i type="int" name="NGX">    42</i>
   <i type="int" name="NGY">    80</i>
   <i type="int" name="NGZ">    98</i>
   <i type="int" name="NGXF">    84</i>
   <i type="int" name="NGYF">   160</i>
   <i type="int" name="NGZF">   196</i>
   <i type="logical" name="ADDGRID"> T  </i>
  </separator>
  <separator name="ionic" >
   <i type="int" name="NSW">     1</i>
   <i type="int" name="IBRION">     8</i>
   <i type="int" name="ISIF">     2</i>
   <i name="PSTRESS">      0.00000000</i>
   <i name="EDIFFG">      0.00010000</i>
   <i type="int" name="NFREE">     0</i>
   <i name="POTIM">      0.50000000</i>
   <i name="SMASS">     -3.00000000</i>
   <i name="SCALEE">      1.00000000</i>
  </separator>
  <separator name="ionic md" >
   <i name="TEBEG">      0.00010000</i>
   <i name="TEEND">      0.00010000</i>
   <i type="int" name="NBLOCK">     1</i>
   <i type="int" name="KBLOCK">     1</i>
   <i type="int" name="NPACO">   256</i>
   <i name="APACO">     16.00000000</i>
  </separator>
  <separator name="symmetry" >
   <i type="int" name="ISYM">     0</i>
   <i name="SYMPREC">      0.00001000</i>
  </separator>
  <separator name="dos" >
   <i type="logical" name="LORBIT"> F  </i>
   <v name="RWIGS">     -1.00000000     -1.00000000</v>
   <i type="int" name="NEDOS">   301</i>
   <i name="EMIN">     10.00000000</i>
   <i name="EMAX">    -10.00000000</i>
   <i name="EFERMI">      0.00000000</i>
  </separator>
  <separator name="writing" >
   <i type="int" name="NWRITE">     3</i>
   <i type="logical" name="LWAVE"> F  </i>
   <i type="logical" name="LCHARG"> F  </i>
   <i type="logical" name="LPARD"> F  </i>
   <i type="logical" name="LVTOT"> F  </i>
   <i type="logical" name="LVHAR"> F  </i>
   <i type="logical" name="LELF"> F  </i>
   <i type="logical" name="LOPTICS"> F  </i>
   <v name="STM">      0.00000000      0.00000000      0.00000000      0.00000000      0.00000000      0.00000000      0.00000000</v>
  </separator>
  <separator name="performance" >
   <i type="int" name="NPAR">    32</i>
   <i type="int" name="NSIM">     4</i>
   <i type="int" name="NBLK">    -1</i>
   <i type="logical" name="LPLANE"> T  </i>
   <i type="logical" name="LSCALAPACK"> T  </i>
   <i type="logical" name="LSCAAWARE"> T  </i>
   <i type="logical" name="LSCALU"> F  </i>
   <i type="logical" name="LASYNC"> F  </i>
   <i type="logical" name="LORBITALREAL"> F  </i>
  </separator>
  <separator name="miscellaneous" >
   <i type="int" name="IDIOT">     3</i>
   <i type="logical" name="LMUSIC"> F  </i>
   <v name="POMASS">    127.60000000     95.94000000</v>
   <v name="DARWINR">      0.00000000      0.00000000</v>
   <v name="DARWINV">      1.00000000      1.00000000</v>
   <i type="logical" name="LCORR"> T  </i>
  </separator>
  <i type="logical" name="GGA_COMPAT"> T  </i>
  <i type="logical" name="LBERRY"> F  </i>
  <i type="int" name="ICORELEVEL">     0</i>
  <i type="logical" name="LDAU"> F  </i>
  <i type="int" name="I_CONSTRAINED_M">     0</i>
  <separator name="electronic exchange-correlation" >
   <i type="string" name="GGA">--</i>
   <i type="int" name="VOSKOWN">     0</i>
   <i type="logical" name="LHFCALC"> F  </i>
   <i type="string" name="PRECFOCK"></i>
   <i type="logical" name="LSYMGRAD"> F  </i>
   <i type="logical" name="LHFONE"> F  </i>
   <i type="logical" name="LRHFCALC"> F  </i>
   <i type="logical" name="LTHOMAS"> F  </i>
   <i type="logical" name="LMODELHF"> F  </i>
   <i name="ENCUT4O">     -1.00000000</i>
   <i type="int" name="EXXOEP">     0</i>
   <i type="int" name="FOURORBIT">     0</i>
   <i name="AEXX">      0.00000000</i>
   <i name="HFALPHA">      0.00000000</i>
   <i name="MCALPHA">      0.00000000</i>
   <i name="ALDAX">      1.00000000</i>
   <i name="AGGAX">      1.00000000</i>
   <i name="ALDAC">      1.00000000</i>
   <i name="AGGAC">      1.00000000</i>
   <i type="int" name="NKREDX">     1</i>
   <i type="int" name="NKREDY">     1</i>
   <i type="int" name="NKREDZ">     1</i>
   <i type="logical" name="SHIFTRED"> F  </i>
   <i type="logical" name="ODDONLY"> F  </i>
   <i type="logical" name="EVENONLY"> F  </i>
   <i type="int" name="LMAXFOCK">     0</i>
   <i type="int" name="NMAXFOCKAE">     0</i>
   <i type="logical" name="LFOCKAEDFT"> F  </i>
   <i name="HFSCREEN">      0.00000000</i>
   <i name="HFSCREENC">      0.00000000</i>
   <i type="int" name="NBANDSGWLOW">     0</i>
  </separator>
  <separator name="vdW DFT" >
   <i type="logical" name="LUSE_VDW"> F  </i>
   <i name="Zab_VDW">     -0.84910000</i>
   <i name="PARAM1">      0.12340000</i>
   <i name="PARAM2">      1.00000000</i>
   <i name="PARAM3">      0.00000000</i>
  </separator>
  <separator name="model GW" >
   <i type="int" name="MODEL_GW">     0</i>
   <i name="MODEL_EPS0">     35.17173760</i>
   <i name="MODEL_ALPHA">      1.00000000</i>
  </separator>
  <separator name="linear response parameters" >
   <i type="logical" name="LEPSILON"> F  </i>
   <i type="logical" name="LRPA"> F  </i>
   <i type="logical" name="LNABLA"> F  </i>
   <i type="logical" name="LVEL"> F  </i>
   <i type="int" name="KINTER">     0</i>
   <i name="CSHIFT">      0.10000000</i>
   <i name="OMEGAMAX">     -1.00000000</i>
   <i name="DEG_THRESHOLD">      0.00200000</i>
  </separator>
  <separator name="orbital magnetization" >
   <i type="logical" name="NUCIND"> F  </i>
   <v name="MAGPOS">      0.00000000      0.00000000      0.00000000</v>
   <i type="logical" name="LNICSALL"> T  </i>
   <i type="logical" name="ORBITALMAG"> F  </i>
   <i type="logical" name="LMAGBLOCH"> F  </i>
   <i type="logical" name="LCHIMAG"> F  </i>
   <i type="logical" name="LGAUGE"> T  </i>
   <i type="int" name="MAGATOM">     0</i>
   <v name="MAGDIPOL">      0.00000000      0.00000000      0.00000000</v>
   <v name="AVECCONST">      0.00000000      0.00000000      0.00000000</v>
  </separator>
  <separator name="response functions" >
   <i type="logical" name="LADDER"> F  </i>
   <i type="logical" name="LFXC"> F  </i>
   <i type="logical" name="LHARTREE"> T  </i>
   <i type="int" name="IBSE">     0</i>
   <i type="logical" name="LTCTE"> F  </i>
   <i type="logical" name="LTETE"> F  </i>
   <i type="logical" name="LTRIPLET"> F  </i>
   <i type="logical" name="LFXCEPS"> F  </i>
   <i type="logical" name="LFXHEG"> F  </i>
   <i type="logical" name="L2ORDER"> F  </i>
   <i type="logical" name="LUSEW"> F  </i>
   <i name="ENCUTGW">     -2.00000000</i>
   <i name="ENCUTGWSOFT">     -2.00000000</i>
   <i name="ENCUTLF">     -1.00000000</i>
   <i type="int" name="LMAXMP2">    -1</i>
   <i name="SCISSOR">      0.00000000</i>
   <i type="int" name="NOMEGA">     0</i>
   <i type="int" name="NOMEGAR">     0</i>
   <i type="int" name="NBANDSGW">    -1</i>
   <i type="int" name="NBANDSO">    -1</i>
   <i type="int" name="NBANDSV">    -1</i>
   <i type="int" name="NELM">     1</i>
   <i type="int" name="DIM">     3</i>
   <i type="int" name="ANTIRES">     0</i>
   <i name="OMEGAMAX">    -30.00000000</i>
   <i name="OMEGAMIN">    -30.00000000</i>
   <i name="OMEGATL">   -200.00000000</i>
   <i type="int" name="OMEGAGRID">     0</i>
   <i name="CSHIFT">     -0.10000000</i>
   <i type="logical" name="SELFENERGY"> F  </i>
   <i type="logical" name="LSPECTRAL"> F  </i>
   <i type="logical" name="ODDONLYGW"> F  </i>
   <i type="logical" name="EVENONLYGW"> F  </i>
   <i type="int" name="NKREDLFX">     1</i>
   <i type="int" name="NKREDLFY">     1</i>
   <i type="int" name="NKREDLFZ">     1</i>
   <i type="int" name="MAXMEM">  1800</i>
   <i type="int" name="TELESCOPE">     0</i>
   <i type="int" name="TAUPAR">     1</i>
  </separator>
  <separator name="External order field" >
   <i name="OFIELD_KAPPA">      0.00000000</i>
   <v name="OFIELD_K">      0.00000000      0.00000000      0.00000000</v>
   <i name="OFIELD_Q6_NEAR">      0.00000000</i>
   <i name="OFIELD_Q6_FAR">      0.00000000</i>
   <i name="OFIELD_A">      0.00000000</i>
  </separator>
 </parameters>
 <atominfo>
  <atoms>      24 </atoms>
  <types>       2 </types>
  <array name="atoms" >
   <dimension dim="1">ion</dimension>
   <field type="string">element</field>
   <field type="int">atomtype</field>
   <set>
    <rc><c>Te</c><c>   1</c></rc>
    <rc><c>Te</c><c>   1</c></rc>
    <rc><c>Te</c><c>   1</c></rc>
    <rc><c>Te</c><c>   1</c></rc>
    <rc><c>Te</c><c>   1</c></rc>
    <rc><c>Te</c><c>   1</c></rc>
    <rc><c>Te</c><c>   1</c></rc>
    <rc><c>Te</c><c>   1</c></rc>
    <rc><c>Te</c><c>   1</c></rc>
    <rc><c>Te</c><c>   1</c></rc>
    <rc><c>Te</c><c>   1</c></rc>
    <rc><c>Te</c><c>   1</c></rc>
    <rc><c>Te</c><c>   1</c></rc>
    <rc><c>Te</c><c>   1</c></rc>
    <rc><c>Te</c><c>   1</c></rc>
    <rc><c>Te</c><c>   1</c></rc>
    <rc><c>Mo</c><c>   2</c></rc>
    <rc><c>Mo</c><c>   2</c></rc>
    <rc><c>Mo</c><c>   2</c></rc>
    <rc><c>Mo</c><c>   2</c></rc>
    <rc><c>Mo</c><c>   2</c></rc>
    <rc><c>Mo</c><c>   2</c></rc>
    <rc><c>Mo</c><c>   2</c></rc>
    <rc><c>Mo</c><c>   2</c></rc>
   </set>
  </array>
  <array name="atomtypes" >
   <dimension dim="1">type</dimension>
   <field type="int">atomspertype</field>
   <field type="string">element</field>
   <field>mass</field>
   <field>valence</field>
   <field type="string">pseudopotential</field>
   <set>
    <rc><c>  16</c><c>Te</c><c>    127.60000000</c><c>      6.00000000</c><c>  PAW_PBE Te 08Apr2002                  </c></rc>
    <rc><c>   8</c><c>Mo</c><c>     95.94000000</c><c>      6.00000000</c><c>  PAW_PBE Mo 08Apr2002                  </c></rc>
   </set>
  </array>
 </atominfo>
 <structure name="initialpos" >
  <crystal>
   <varray name="basis" >
    <v>       6.90400000       0.00000000       0.00000000 </v>
    <v>       0.00000000      12.73600000       0.00000000 </v>
    <v>       0.00000000       0.00000000      16.00000000 </v>
   </varray>
   <i name="volume">   1406.86950400 </i>
   <varray name="rec_basis" >
    <v>       0.14484357       0.00000000       0.00000000 </v>
    <v>       0.00000000       0.07851759       0.00000000 </v>
    <v>       0.00000000       0.00000000       0.06250000 </v>
   </varray>
  </crystal>
  <varray name="positions" >
   <v>       0.25000000       0.05081658       0.12913313 </v>
   <v>       0.75000000       0.05081658       0.12913313 </v>
   <v>       0.25000000       0.55081658       0.12913313 </v>
   <v>       0.75000000       0.55081658       0.12913313 </v>
   <v>       0.25000000       0.37457836       0.90758437 </v>
   <v>       0.75000000       0.37457836       0.90758437 </v>
   <v>       0.25000000       0.87457836       0.90758437 </v>
   <v>       0.75000000       0.87457836       0.90758437 </v>
   <v>       0.00000000       0.12870524       0.87086563 </v>
   <v>       0.50000000       0.12870524       0.87086563 </v>
   <v>       0.00000000       0.62870524       0.87086563 </v>
   <v>       0.50000000       0.62870524       0.87086563 </v>
   <v>       0.00000000       0.30494033       0.09241625 </v>
   <v>       0.50000000       0.30494033       0.09241625 </v>
   <v>       0.00000000       0.80494033       0.09241625 </v>
   <v>       0.50000000       0.80494033       0.09241625 </v>
   <v>       0.25000000       0.18029837       0.99406750 </v>
   <v>       0.75000000       0.18029837       0.99406750 </v>
   <v>       0.25000000       0.68029837       0.99406750 </v>
   <v>       0.75000000       0.68029837       0.99406750 </v>
   <v>       0.00000000       0.99921954       0.00593312 </v>
   <v>       0.50000000       0.99921954       0.00593312 </v>
   <v>       0.00000000       0.49921954       0.00593312 </v>
   <v>       0.50000000       0.49921954       0.00593312 </v>
  </varray>
 </structure>
 <calculation>
  <scstep>
   <time name="dav">  193.44  193.63</time>
   <time name="total">  194.19  194.42</time>
   <energy>
    <i name="alphaZ">    100.76681506 </i>
    <i name="ewald">   6826.52927801 </i>
    <i name="hartreedc"> -11945.93885872 </i>
    <i name="XCdc">   -929.23401896 </i>
    <i name="pawpsdc">   5443.33721788 </i>
    <i name="pawaedc">  -4257.95401428 </i>
    <i name="eentropy">     -0.01869458 </i>
    <i name="bandstr">    172.07410618 </i>
    <i name="atom">   5312.41818276 </i>
    <i name="e_fr_energy">    721.98001336 </i>
    <i name="e_wo_entrp">    721.99870794 </i>
    <i name="e_0_energy">    721.98936065 </i>
   </energy>
  </scstep>
  <scstep>
   <time name="dav">  246.38  246.75</time>
   <time name="total">  246.55  246.92</time>
   <energy>
    <i name="e_fr_energy">    -54.32805405 </i>
    <i name="e_wo_entrp">    -54.31515937 </i>
    <i name="e_0_energy">    -54.32160671 </i>
   </energy>
  </scstep>
  <scstep>
   <time name="dav">  226.58  226.71</time>
   <time name="total">  226.75  227.18</time>
   <energy>
    <i name="e_fr_energy">   -136.84108692 </i>
    <i name="e_wo_entrp">   -136.82409171 </i>
    <i name="e_0_energy">   -136.83258932 </i>
   </energy>
  </scstep>
  <scstep>
   <time name="dav">  241.12  241.42</time>
   <time name="total">  241.30  241.61</time>
   <energy>
    <i name="e_fr_energy">   -140.14330227 </i>
    <i name="e_wo_entrp">   -140.12638264 </i>
    <i name="e_0_energy">   -140.13484246 </i>
   </energy>
  </scstep>
  <scstep>
   <time name="dav">  242.00  242.41</time>
   <time name="total">  247.72  248.20</time>
   <energy>
    <i name="e_fr_energy">   -140.22469608 </i>
    <i name="e_wo_entrp">   -140.20777776 </i>
    <i name="e_0_energy">   -140.21623692 </i>
   </energy>
  </scstep>
  <scstep>
   <time name="dav">  192.83  192.97</time>
   <time name="total">  199.12  199.31</time>
   <energy>
    <i name="e_fr_energy">   -112.71103547 </i>
    <i name="e_wo_entrp">   -112.70041327 </i>
    <i name="e_0_energy">   -112.70572437 </i>
   </energy>
  </scstep>
  <scstep>
   <time name="dav">  227.48  227.90</time>
   <time name="total">  233.63  234.08</time>
   <energy>
    <i name="e_fr_energy">   -116.75630191 </i>
    <i name="e_wo_entrp">   -116.74259901 </i>
    <i name="e_0_energy">   -116.74945046 </i>
   </energy>
  </scstep>
  <scstep>
   <time name="dav">  221.32  221.48</time>
   <time name="total">  227.51  227.67</time>
   <energy>
    <i name="e_fr_energy">   -115.03550397 </i>
    <i name="e_wo_entrp">   -115.02026116 </i>
    <i name="e_0_energy">   -115.02788256 </i>
   </energy>
  </scstep>
  <scstep>
   <time name="dav">  212.46  212.67</time>
   <time name="total">  218.59  218.82</time>
   <energy>
    <i name="e_fr_energy">   -121.85012967 </i>
    <i name="e_wo_entrp">   -121.83574290 </i>
    <i name="e_0_energy">   -121.84293628 </i>
   </energy>
  </scstep>
  <scstep>
   <time name="dav">  211.52  212.37</time>
   <time name="total">  217.60  218.59</time>
   <energy>
    <i name="e_fr_energy">   -128.77445048 </i>
    <i name="e_wo_entrp">   -128.76497244 </i>
    <i name="e_0_energy">   -128.76971146 </i>
   </energy>
  </scstep>
  <scstep>
   <time name="dav">  210.19  210.68</time>
   <time name="total">  216.24  216.83</time>
   <energy>
    <i name="e_fr_energy">   -139.83767292 </i>
    <i name="e_wo_entrp">   -139.83050823 </i>
    <i name="e_0_energy">   -139.83409057 </i>
   </energy>
  </scstep>
  <scstep>
   <time name="dav">  222.76  223.22</time>
   <time name="total">  228.94  229.41</time>
   <energy>
    <i name="e_fr_energy">   -143.80501458 </i>
    <i name="e_wo_entrp">   -143.79745618 </i>
    <i name="e_0_energy">   -143.80123538 </i>
   </energy>
  </scstep>
  <scstep>
   <time name="dav">  215.86  216.32</time>
   <time name="total">  222.03  222.52</time>
   <energy>
    <i name="e_fr_energy">   -144.78738032 </i>
    <i name="e_wo_entrp">   -144.77982155 </i>
    <i name="e_0_energy">   -144.78360094 </i>
   </energy>
  </scstep>
  <scstep>
   <time name="dav">  226.99  227.18</time>
   <time name="total">  233.22  233.42</time>
   <energy>
    <i name="e_fr_energy">   -145.05872113 </i>
    <i name="e_wo_entrp">   -145.05113049 </i>
    <i name="e_0_energy">   -145.05492581 </i>
   </energy>
  </scstep>
  <scstep>
   <time name="dav">  224.54  224.68</time>
   <time name="total">  230.78  230.94</time>
   <energy>
    <i name="e_fr_energy">   -145.31106524 </i>
    <i name="e_wo_entrp">   -145.30342534 </i>
    <i name="e_0_energy">   -145.30724529 </i>
   </energy>
  </scstep>
  <scstep>
   <time name="dav">  223.95  224.47</time>
   <time name="total">  230.16  230.73</time>
   <energy>
    <i name="e_fr_energy">   -145.49656685 </i>
    <i name="e_wo_entrp">   -145.48891672 </i>
    <i name="e_0_energy">   -145.49274178 </i>
   </energy>
  </scstep>
  <scstep>
   <time name="dav">  233.28  233.78</time>
   <time name="total">  239.57  240.09</time>
   <energy>
    <i name="e_fr_energy">   -145.63569605 </i>
    <i name="e_wo_entrp">   -145.62805385 </i>
    <i name="e_0_energy">   -145.63187495 </i>
   </energy>
  </scstep>
  <scstep>
   <time name="dav">  232.30  232.63</time>
   <time name="total">  238.54  238.92</time>
   <energy>
    <i name="e_fr_energy">   -145.70292534 </i>
    <i name="e_wo_entrp">   -145.69528790 </i>
    <i name="e_0_energy">   -145.69910662 </i>
   </energy>
  </scstep>
  <scstep>
   <time name="dav">  228.23  228.64</time>
   <time name="total">  234.57  235.34</time>
   <energy>
    <i name="e_fr_energy">   -145.71623786 </i>
    <i name="e_wo_entrp">   -145.70860054 </i>
    <i name="e_0_energy">   -145.71241920 </i>
   </energy>
  </scstep>
  <scstep>
   <time name="dav">  222.03  222.41</time>
   <time name="total">  228.25  228.67</time>
   <energy>
    <i name="e_fr_energy">   -145.72516677 </i>
    <i name="e_wo_entrp">   -145.71752910 </i>
    <i name="e_0_energy">   -145.72134794 </i>
   </energy>
  </scstep>
  <scstep>
   <time name="dav">  222.17  222.57</time>
   <time name="total">  228.25  228.77</time>
   <energy>
    <i name="e_fr_energy">   -145.73404461 </i>
    <i name="e_wo_entrp">   -145.72640790 </i>
    <i name="e_0_energy">   -145.73022625 </i>
   </energy>
  </scstep>
  <scstep>
   <time name="dav">  222.50  222.76</time>
   <time name="total">  228.65  228.92</time>
   <energy>
    <i name="e_fr_energy">   -145.73660367 </i>
    <i name="e_wo_entrp">   -145.72896845 </i>
    <i name="e_0_energy">   -145.73278606 </i>
   </energy>
  </scstep>
  <scstep>
   <time name="dav">  233.14  233.38</time>
   <time name="total">  239.31  239.63</time>
   <energy>
    <i name="e_fr_energy">   -145.73684699 </i>
    <i name="e_wo_entrp">   -145.72921166 </i>
    <i name="e_0_energy">   -145.73302932 </i>
   </energy>
  </scstep>
  <scstep>
   <time name="dav">  209.15  209.31</time>
   <time name="total">  215.18  215.42</time>
   <energy>
    <i name="e_fr_energy">   -145.73706978 </i>
    <i name="e_wo_entrp">   -145.72943413 </i>
    <i name="e_0_energy">   -145.73325195 </i>
   </energy>
  </scstep>
  <scstep>
   <time name="dav">  205.32  205.66</time>
   <time name="total">  211.34  211.68</time>
   <energy>
    <i name="e_fr_energy">   -145.73744839 </i>
    <i name="e_wo_entrp">   -145.72981314 </i>
    <i name="e_0_energy">   -145.73363077 </i>
   </energy>
  </scstep>
  <scstep>
   <time name="dav">  223.46  224.06</time>
   <time name="total">  229.54  230.16</time>
   <energy>
    <i name="e_fr_energy">   -145.73753658 </i>
    <i name="e_wo_entrp">   -145.72990125 </i>
    <i name="e_0_energy">   -145.73371891 </i>
   </energy>
  </scstep>
  <scstep>
   <time name="dav">  196.68  196.92</time>
   <time name="total">  202.83  203.08</time>
   <energy>
    <i name="e_fr_energy">   -145.73763028 </i>
    <i name="e_wo_entrp">   -145.72999484 </i>
    <i name="e_0_energy">   -145.73381256 </i>
   </energy>
  </scstep>
  <scstep>
   <time name="dav">  200.85  201.07</time>
   <time name="total">  206.93  207.17</time>
   <energy>
    <i name="e_fr_energy">   -145.73770857 </i>
    <i name="e_wo_entrp">   -145.73007323 </i>
    <i name="e_0_energy">   -145.73389090 </i>
   </energy>
  </scstep>
  <scstep>
   <time name="dav">  200.74  200.94</time>
   <time name="total">  206.95  207.17</time>
   <energy>
    <i name="e_fr_energy">   -145.73776329 </i>
    <i name="e_wo_entrp">   -145.73012810 </i>
    <i name="e_0_energy">   -145.73394570 </i>
   </energy>
  </scstep>
  <scstep>
   <time name="dav">  180.59  181.10</time>
   <time name="total">  181.32  181.84</time>
   <energy>
    <i name="alphaZ">    100.76681506 </i>
    <i name="ewald">   6826.52927801 </i>
    <i name="hartreedc"> -12025.77185508 </i>
    <i name="XCdc">   -929.19880898 </i>
    <i name="pawpsdc">  11548.78870553 </i>
    <i name="pawaedc"> -10374.68080877 </i>
    <i name="eentropy">     -0.00763520 </i>
    <i name="bandstr">   -604.58164658 </i>
    <i name="atom">   5312.41818276 </i>
    <i name="e_fr_energy">   -145.73777324 </i>
    <i name="e_wo_entrp">   -145.73013804 </i>
    <i name="e_0_energy">   -145.73395564 </i>
   </energy>
  </scstep>
  <structure>
   <crystal>
    <varray name="basis" >
     <v>       6.90400000       0.00000000       0.00000000 </v>
     <v>       0.00000000      12.73600000       0.00000000 </v>
     <v>       0.00000000       0.00000000      16.00000000 </v>
    </varray>
    <i name="volume">   1406.86950400 </i>
    <varray name="rec_basis" >
     <v>       0.14484357       0.00000000       0.00000000 </v>
     <v>       0.00000000       0.07851759       0.00000000 </v>
     <v>       0.00000000       0.00000000       0.06250000 </v>
    </varray>
   </crystal>
   <varray name="positions" >
    <v>       0.25000000       0.05081658       0.12913313 </v>
    <v>       0.75000000       0.05081658       0.12913313 </v>
    <v>       0.25000000       0.55081658       0.12913313 </v>
    <v>       0.75000000       0.55081658       0.12913313 </v>
    <v>       0.25000000       0.37457836       0.90758437 </v>
    <v>       0.75000000       0.37457836       0.90758437 </v>
    <v>       0.25000000       0.87457836       0.90758437 </v>
    <v>       0.75000000       0.87457836       0.90758437 </v>
    <v>       0.00000000       0.12870524       0.87086563 </v>
    <v>       0.50000000       0.12870524       0.87086563 </v>
    <v>       0.00000000       0.62870524       0.87086563 </v>
    <v>       0.50000000       0.62870524       0.87086563 </v>
    <v>       0.00000000       0.30494033       0.09241625 </v>
    <v>       0.50000000       0.30494033       0.09241625 </v>
    <v>       0.00000000       0.80494033       0.09241625 </v>
    <v>       0.50000000       0.80494033       0.09241625 </v>
    <v>       0.25000000       0.18029837       0.99406750 </v>
    <v>       0.75000000       0.18029837       0.99406750 </v>
    <v>       0.25000000       0.68029837       0.99406750 </v>
    <v>       0.75000000       0.68029837       0.99406750 </v>
    <v>       0.00000000       0.99921954       0.00593312 </v>
    <v>       0.50000000       0.99921954       0.00593312 </v>
    <v>       0.00000000       0.49921954       0.00593312 </v>
    <v>       0.50000000       0.49921954       0.00593312 </v>
   </varray>
  </structure>
  <varray name="forces" >
   <v>       0.00001063       0.00643182       0.01702044 </v>
   <v>      -0.00001091       0.00643254       0.01702013 </v>
   <v>       0.00000874       0.00643422       0.01703640 </v>
   <v>      -0.00000906       0.00643519       0.01703629 </v>
   <v>       0.00000756       0.00454306       0.00128445 </v>
   <v>      -0.00000758       0.00454191       0.00128436 </v>
   <v>       0.00000889       0.00454978       0.00129033 </v>
   <v>      -0.00000871       0.00454912       0.00129183 </v>
   <v>      -0.00000129      -0.00668474      -0.01663991 </v>
   <v>       0.00000157      -0.00669364      -0.01662770 </v>
   <v>      -0.00000096      -0.00667951      -0.01665235 </v>
   <v>       0.00000110      -0.00668758      -0.01664263 </v>
   <v>      -0.00000098      -0.00454522      -0.00127144 </v>
   <v>       0.00000111      -0.00453693      -0.00127868 </v>
   <v>      -0.00000080      -0.00453779      -0.00127139 </v>
   <v>       0.00000084      -0.00452807      -0.00127858 </v>
   <v>       0.00000865       0.00557513       0.01524429 </v>
   <v>      -0.00000886       0.00557384       0.01524351 </v>
   <v>       0.00000658       0.00557809       0.01524111 </v>
   <v>      -0.00000643       0.00557889       0.01524123 </v>
   <v>      -0.00000144      -0.00533485      -0.01564414 </v>
   <v>       0.00000118      -0.00533058      -0.01564290 </v>
   <v>      -0.00000001      -0.00533393      -0.01564308 </v>
   <v>       0.00000017      -0.00533076      -0.01564155 </v>
  </varray>
  <varray name="stress" >
   <v>       0.69639881       0.00000460       0.00000600 </v>
   <v>       0.00000466       0.21664752       0.06393734 </v>
   <v>       0.00000566       0.06393737      -0.23406791 </v>
  </varray>
  <energy>
   <i name="e_fr_energy">   -145.73777324 </i>
   <i name="e_wo_entrp">   -145.73395564 </i>
   <i name="e_0_energy">     -0.00763520 </i>
  </energy>
  <scstep>
   <time name="total">  178.89  179.09</time>
   <energy>
    <i name="e_fr_energy">   -120.77123093 </i>
    <i name="e_wo_entrp">   -120.77123093 </i>
    <i name="e_0_energy">   -120.77123093 </i>
   </energy>
  </scstep>
  <scstep>
   <time name="total">  147.50  148.29</time>
   <energy>
    <i name="e_fr_energy">   -115.86730940 </i>
    <i name="e_wo_entrp">   -115.86730850 </i>
    <i name="e_0_energy">   -115.86730895 </i>
   </energy>
  </scstep>
  <scstep>
   <time name="total">  145.41  145.60</time>
   <energy>
    <i name="e_fr_energy">   -116.09380273 </i>
    <i name="e_wo_entrp">   -116.09380195 </i>
    <i name="e_0_energy">   -116.09380234 </i>
   </energy>
  </scstep>
  <scstep>
   <time name="total">  137.88  138.41</time>
   <energy>
    <i name="e_fr_energy">   -115.66215328 </i>
    <i name="e_wo_entrp">   -115.66215253 </i>
    <i name="e_0_energy">   -115.66215290 </i>
   </energy>
  </scstep>
  <scstep>
   <time name="total">  140.75  140.96</time>
   <energy>
    <i name="e_fr_energy">   -115.57365365 </i>
    <i name="e_wo_entrp">   -115.57365302 </i>
    <i name="e_0_energy">   -115.57365334 </i>
   </energy>
  </scstep>
  <scstep>
   <time name="total">  151.81  152.39</time>
   <energy>
    <i name="e_fr_energy">   -115.57736685 </i>
    <i name="e_wo_entrp">   -115.57736621 </i>
    <i name="e_0_energy">   -115.57736653 </i>
   </energy>
  </scstep>
  <scstep>
   <time name="total">  179.04  179.65</time>
   <energy>
    <i name="e_fr_energy">   -125.81115120 </i>
    <i name="e_wo_entrp">   -125.81124711 </i>
    <i name="e_0_energy">   -125.81119915 </i>
   </energy>
  </scstep>
  <scstep>
   <time name="total">  149.71  149.91</time>
   <energy>
    <i name="e_fr_energy">   -122.51878065 </i>
    <i name="e_wo_entrp">   -122.51887553 </i>
    <i name="e_0_energy">   -122.51882809 </i>
   </energy>
  </scstep>
  <scstep>
   <time name="total">  144.77  145.30</time>
   <energy>
    <i name="e_fr_energy">   -122.62481742 </i>
    <i name="e_wo_entrp">   -122.62485906 </i>
    <i name="e_0_energy">   -122.62483824 </i>
   </energy>
  </scstep>
  <scstep>
   <time name="total">  139.59  139.80</time>
   <energy>
    <i name="e_fr_energy">   -122.38559509 </i>
    <i name="e_wo_entrp">   -122.38559790 </i>
    <i name="e_0_energy">   -122.38559650 </i>
   </energy>
  </scstep>
  <scstep>
   <time name="total">  141.67  142.21</time>
   <energy>
    <i name="e_fr_energy">   -122.32802202 </i>
    <i name="e_wo_entrp">   -122.32791757 </i>
    <i name="e_0_energy">   -122.32796980 </i>
   </energy>
  </scstep>
  <scstep>
   <time name="total">  148.86  149.06</time>
   <energy>
    <i name="e_fr_energy">   -122.32588102 </i>
    <i name="e_wo_entrp">   -122.32581635 </i>
    <i name="e_0_energy">   -122.32584869 </i>
   </energy>
  </scstep>
  <scstep>
   <time name="total">  181.68  181.96</time>
   <energy>
    <i name="e_fr_energy">   -131.34621817 </i>
    <i name="e_wo_entrp">   -131.34548769 </i>
    <i name="e_0_energy">   -131.34585293 </i>
   </energy>
  </scstep>
  <scstep>
   <time name="total">  148.50  148.99</time>
   <energy>
    <i name="e_fr_energy">   -125.40210567 </i>
    <i name="e_wo_entrp">   -125.40137362 </i>
    <i name="e_0_energy">   -125.40173964 </i>
   </energy>
  </scstep>
  <scstep>
   <time name="total">  142.59  142.74</time>
   <energy>
    <i name="e_fr_energy">   -125.52838976 </i>
    <i name="e_wo_entrp">   -125.52696570 </i>
    <i name="e_0_energy">   -125.52767773 </i>
   </energy>
  </scstep>
  <scstep>
   <time name="total">  141.07  141.27</time>
   <energy>
    <i name="e_fr_energy">   -124.92895536 </i>
    <i name="e_wo_entrp">   -124.92796669 </i>
    <i name="e_0_energy">   -124.92846102 </i>
   </energy>
  </scstep>
  <scstep>
   <time name="total">  141.01  141.59</time>
   <energy>
    <i name="e_fr_energy">   -124.92981687 </i>
    <i name="e_wo_entrp">   -124.92941811 </i>
    <i name="e_0_energy">   -124.92961749 </i>
   </energy>
  </scstep>
  <scstep>
   <time name="total">  146.06  146.26</time>
   <energy>
    <i name="e_fr_energy">   -124.77069211 </i>
    <i name="e_wo_entrp">   -124.76990694 </i>
    <i name="e_0_energy">   -124.77029953 </i>
   </energy>
  </scstep>
  <scstep>
   <time name="total">  149.13  149.69</time>
   <energy>
    <i name="e_fr_energy">   -124.77143031 </i>
    <i name="e_wo_entrp">   -124.77060456 </i>
    <i name="e_0_energy">   -124.77101743 </i>
   </energy>
  </scstep>
  <scstep>
   <time name="total">  178.79  179.70</time>
   <energy>
    <i name="e_fr_energy">   -120.77123100 </i>
    <i name="e_wo_entrp">   -120.77123100 </i>
    <i name="e_0_energy">   -120.77123100 </i>
   </energy>
  </scstep>
  <scstep>
   <time name="total">  148.02  148.49</time>
   <energy>
    <i name="e_fr_energy">   -115.86731800 </i>
    <i name="e_wo_entrp">   -115.86731709 </i>
    <i name="e_0_energy">   -115.86731755 </i>
   </energy>
  </scstep>
  <scstep>
   <time name="total">  145.13  145.72</time>
   <energy>
    <i name="e_fr_energy">   -116.09380215 </i>
    <i name="e_wo_entrp">   -116.09380138 </i>
    <i name="e_0_energy">   -116.09380177 </i>
   </energy>
  </scstep>
  <scstep>
   <time name="total">  137.64  138.12</time>
   <energy>
    <i name="e_fr_energy">   -115.66215565 </i>
    <i name="e_wo_entrp">   -115.66215489 </i>
    <i name="e_0_energy">   -115.66215527 </i>
   </energy>
  </scstep>
  <scstep>
   <time name="total">  140.36  140.86</time>
   <energy>
    <i name="e_fr_energy">   -115.57366250 </i>
    <i name="e_wo_entrp">   -115.57366187 </i>
    <i name="e_0_energy">   -115.57366218 </i>
   </energy>
  </scstep>
  <scstep>
   <time name="total">  151.30  151.43</time>
   <energy>
    <i name="e_fr_energy">   -115.57737479 </i>
    <i name="e_wo_entrp">   -115.57737414 </i>
    <i name="e_0_energy">   -115.57737446 </i>
   </energy>
  </scstep>
  <scstep>
   <time name="total">  179.08  179.59</time>
   <energy>
    <i name="e_fr_energy">   -125.81114534 </i>
    <i name="e_wo_entrp">   -125.81124125 </i>
    <i name="e_0_energy">   -125.81119329 </i>
   </energy>
  </scstep>
  <scstep>
   <time name="total">  149.92  150.10</time>
   <energy>
    <i name="e_fr_energy">   -122.51877506 </i>
    <i name="e_wo_entrp">   -122.51886994 </i>
    <i name="e_0_energy">   -122.51882250 </i>
   </energy>
  </scstep>
  <scstep>
   <time name="total">  145.07  145.25</time>
   <energy>
    <i name="e_fr_energy">   -122.62480563 </i>
    <i name="e_wo_entrp">   -122.62484727 </i>
    <i name="e_0_energy">   -122.62482645 </i>
   </energy>
  </scstep>
  <scstep>
   <time name="total">  140.09  140.20</time>
   <energy>
    <i name="e_fr_energy">   -122.38558057 </i>
    <i name="e_wo_entrp">   -122.38558337 </i>
    <i name="e_0_energy">   -122.38558197 </i>
   </energy>
  </scstep>
  <scstep>
   <time name="total">  141.66  142.19</time>
   <energy>
    <i name="e_fr_energy">   -122.32801065 </i>
    <i name="e_wo_entrp">   -122.32790620 </i>
    <i name="e_0_energy">   -122.32795842 </i>
   </energy>
  </scstep>
  <scstep>
   <time name="total">  149.47  149.61</time>
   <energy>
    <i name="e_fr_energy">   -122.32588684 </i>
    <i name="e_wo_entrp">   -122.32582217 </i>
    <i name="e_0_energy">   -122.32585450 </i>
   </energy>
  </scstep>
  <scstep>
   <time name="total">  181.31  181.45</time>
   <energy>
    <i name="e_fr_energy">   -131.34621788 </i>
    <i name="e_wo_entrp">   -131.34548740 </i>
    <i name="e_0_energy">   -131.34585264 </i>
   </energy>
  </scstep>
  <scstep>
   <time name="total">  148.48  148.66</time>
   <energy>
    <i name="e_fr_energy">   -125.40214055 </i>
    <i name="e_wo_entrp">   -125.40140850 </i>
    <i name="e_0_energy">   -125.40177453 </i>
   </energy>
  </scstep>
  <scstep>
   <time name="total">  142.45  142.60</time>
   <energy>
    <i name="e_fr_energy">   -125.52837517 </i>
    <i name="e_wo_entrp">   -125.52695110 </i>
    <i name="e_0_energy">   -125.52766313 </i>
   </energy>
  </scstep>
  <scstep>
   <time name="total">  140.66  141.15</time>
   <energy>
    <i name="e_fr_energy">   -124.92896919 </i>
    <i name="e_wo_entrp">   -124.92798052 </i>
    <i name="e_0_energy">   -124.92847485 </i>
   </energy>
  </scstep>
  <scstep>
   <time name="total">  140.47  140.62</time>
   <energy>
    <i name="e_fr_energy">   -124.92983039 </i>
    <i name="e_wo_entrp">   -124.92943163 </i>
    <i name="e_0_energy">   -124.92963101 </i>
   </energy>
  </scstep>
  <scstep>
   <time name="total">  145.44  146.02</time>
   <energy>
    <i name="e_fr_energy">   -124.77068937 </i>
    <i name="e_wo_entrp">   -124.76990421 </i>
    <i name="e_0_energy">   -124.77029679 </i>
   </energy>
  </scstep>
  <scstep>
   <time name="total">  149.40  149.56</time>
   <energy>
    <i name="e_fr_energy">   -124.77144795 </i>
    <i name="e_wo_entrp">   -124.77062220 </i>
    <i name="e_0_energy">   -124.77103507 </i>
   </energy>
  </scstep>
  <scstep>
   <time name="total">  179.04  179.85</time>
   <energy>
    <i name="e_fr_energy">   -120.77109115 </i>
    <i name="e_wo_entrp">   -120.77109115 </i>
    <i name="e_0_energy">   -120.77109115 </i>
   </energy>
  </scstep>
  <scstep>
   <time name="total">  148.37  149.19</time>
   <energy>
    <i name="e_fr_energy">   -115.86731869 </i>
    <i name="e_wo_entrp">   -115.86731778 </i>
    <i name="e_0_energy">   -115.86731823 </i>
   </energy>
  </scstep>
  <scstep>
   <time name="total">  144.86  145.34</time>
   <energy>
    <i name="e_fr_energy">   -116.09380876 </i>
    <i name="e_wo_entrp">   -116.09380800 </i>
    <i name="e_0_energy">   -116.09380838 </i>
   </energy>
  </scstep>
  <scstep>
   <time name="total">  137.70  138.06</time>
   <energy>
    <i name="e_fr_energy">   -115.66212752 </i>
    <i name="e_wo_entrp">   -115.66212677 </i>
    <i name="e_0_energy">   -115.66212714 </i>
   </energy>
  </scstep>
  <scstep>
   <time name="total">  140.24  141.06</time>
   <energy>
    <i name="e_fr_energy">   -115.57365168 </i>
    <i name="e_wo_entrp">   -115.57365105 </i>
    <i name="e_0_energy">   -115.57365136 </i>
   </energy>
  </scstep>
  <scstep>
   <time name="total">  151.29  151.80</time>
   <energy>
    <i name="e_fr_energy">   -115.57739044 </i>
    <i name="e_wo_entrp">   -115.57738980 </i>
    <i name="e_0_energy">   -115.57739012 </i>
   </energy>
  </scstep>
  <scstep>
   <time name="total">  179.37  179.84</time>
   <energy>
    <i name="e_fr_energy">   -125.81115396 </i>
    <i name="e_wo_entrp">   -125.81124991 </i>
    <i name="e_0_energy">   -125.81120193 </i>
   </energy>
  </scstep>
  <scstep>
   <time name="total">  148.85  149.31</time>
   <energy>
    <i name="e_fr_energy">   -122.51879191 </i>
    <i name="e_wo_entrp">   -122.51888682 </i>
    <i name="e_0_energy">   -122.51883937 </i>
   </energy>
  </scstep>
  <scstep>
   <time name="total">  144.82  144.97</time>
   <energy>
    <i name="e_fr_energy">   -122.62480967 </i>
    <i name="e_wo_entrp">   -122.62485132 </i>
    <i name="e_0_energy">   -122.62483050 </i>
   </energy>
  </scstep>
  <scstep>
   <time name="total">  140.34  140.59</time>
   <energy>
    <i name="e_fr_energy">   -122.38562071 </i>
    <i name="e_wo_entrp">   -122.38562353 </i>
    <i name="e_0_energy">   -122.38562212 </i>
   </energy>
  </scstep>
  <scstep>
   <time name="total">  141.64  141.79</time>
   <energy>
    <i name="e_fr_energy">   -122.32801703 </i>
    <i name="e_wo_entrp">   -122.32791261 </i>
    <i name="e_0_energy">   -122.32796482 </i>
   </energy>
  </scstep>
  <scstep>
   <time name="total">  148.91  149.18</time>
   <energy>
    <i name="e_fr_energy">   -122.32588763 </i>
    <i name="e_wo_entrp">   -122.32582298 </i>
    <i name="e_0_energy">   -122.32585531 </i>
   </energy>
  </scstep>
  <scstep>
   <time name="total">  181.34  181.85</time>
   <energy>
    <i name="e_fr_energy">   -131.34618640 </i>
    <i name="e_wo_entrp">   -131.34545589 </i>
    <i name="e_0_energy">   -131.34582114 </i>
   </energy>
  </scstep>
  <scstep>
   <time name="total">  148.91  149.05</time>
   <energy>
    <i name="e_fr_energy">   -125.40210854 </i>
    <i name="e_wo_entrp">   -125.40137647 </i>
    <i name="e_0_energy">   -125.40174250 </i>
   </energy>
  </scstep>
  <scstep>
   <time name="total">  143.17  143.35</time>
   <energy>
    <i name="e_fr_energy">   -125.52839593 </i>
    <i name="e_wo_entrp">   -125.52697194 </i>
    <i name="e_0_energy">   -125.52768393 </i>
   </energy>
  </scstep>
  <scstep>
   <time name="total">  140.55  140.74</time>
   <energy>
    <i name="e_fr_energy">   -124.92898215 </i>
    <i name="e_wo_entrp">   -124.92799349 </i>
    <i name="e_0_energy">   -124.92848782 </i>
   </energy>
  </scstep>
  <scstep>
   <time name="total">  140.63  140.74</time>
   <energy>
    <i name="e_fr_energy">   -124.92979806 </i>
    <i name="e_wo_entrp">   -124.92939932 </i>
    <i name="e_0_energy">   -124.92959869 </i>
   </energy>
  </scstep>
  <scstep>
   <time name="total">  145.73  146.24</time>
   <energy>
    <i name="e_fr_energy">   -124.77067253 </i>
    <i name="e_wo_entrp">   -124.76988738 </i>
    <i name="e_0_energy">   -124.77027995 </i>
   </energy>
  </scstep>
  <scstep>
   <time name="total">  150.38  150.53</time>
   <energy>
    <i name="e_fr_energy">   -124.77143261 </i>
    <i name="e_wo_entrp">   -124.77060687 </i>
    <i name="e_0_energy">   -124.77101974 </i>
   </energy>
  </scstep>
  <scstep>
   <time name="total">  179.11  179.42</time>
   <energy>
    <i name="e_fr_energy">   -120.77109286 </i>
    <i name="e_wo_entrp">   -120.77109286 </i>
    <i name="e_0_energy">   -120.77109286 </i>
   </energy>
  </scstep>
  <scstep>
   <time name="total">  148.95  149.54</time>
   <energy>
    <i name="e_fr_energy">   -115.86731830 </i>
    <i name="e_wo_entrp">   -115.86731740 </i>
    <i name="e_0_energy">   -115.86731785 </i>
   </energy>
  </scstep>
  <scstep>
   <time name="total">  145.06  145.39</time>
   <energy>
    <i name="e_fr_energy">   -116.09382235 </i>
    <i name="e_wo_entrp">   -116.09382157 </i>
    <i name="e_0_energy">   -116.09382196 </i>
   </energy>
  </scstep>
  <scstep>
   <time name="total">  139.16  139.47</time>
   <energy>
    <i name="e_fr_energy">   -115.66217984 </i>
    <i name="e_wo_entrp">   -115.66217909 </i>
    <i name="e_0_energy">   -115.66217946 </i>
   </energy>
  </scstep>
  <scstep>
   <time name="total">  140.47  140.59</time>
   <energy>
    <i name="e_fr_energy">   -115.57364806 </i>
    <i name="e_wo_entrp">   -115.57364743 </i>
    <i name="e_0_energy">   -115.57364774 </i>
   </energy>
  </scstep>
  <scstep>
   <time name="total">  152.44  152.72</time>
   <energy>
    <i name="e_fr_energy">   -115.57737885 </i>
    <i name="e_wo_entrp">   -115.57737821 </i>
    <i name="e_0_energy">   -115.57737853 </i>
   </energy>
  </scstep>
  <scstep>
   <time name="total">  179.90  180.10</time>
   <energy>
    <i name="e_fr_energy">   -125.81116124 </i>
    <i name="e_wo_entrp">   -125.81125719 </i>
    <i name="e_0_energy">   -125.81120921 </i>
   </energy>
  </scstep>
  <scstep>
   <time name="total">  150.72  150.88</time>
   <energy>
    <i name="e_fr_energy">   -122.51879245 </i>
    <i name="e_wo_entrp">   -122.51888736 </i>
    <i name="e_0_energy">   -122.51883990 </i>
   </energy>
  </scstep>
  <scstep>
   <time name="total">  146.70  146.89</time>
   <energy>
    <i name="e_fr_energy">   -122.62480616 </i>
    <i name="e_wo_entrp">   -122.62484780 </i>
    <i name="e_0_energy">   -122.62482698 </i>
   </energy>
  </scstep>
  <scstep>
   <time name="total">  140.74  140.86</time>
   <energy>
    <i name="e_fr_energy">   -122.38559617 </i>
    <i name="e_wo_entrp">   -122.38559900 </i>
    <i name="e_0_energy">   -122.38559758 </i>
   </energy>
  </scstep>
  <scstep>
   <time name="total">  141.35  141.52</time>
   <energy>
    <i name="e_fr_energy">   -122.32802663 </i>
    <i name="e_wo_entrp">   -122.32792221 </i>
    <i name="e_0_energy">   -122.32797442 </i>
   </energy>
  </scstep>
  <scstep>
   <time name="total">  149.28  149.48</time>
   <energy>
    <i name="e_fr_energy">   -122.32588987 </i>
    <i name="e_wo_entrp">   -122.32582523 </i>
    <i name="e_0_energy">   -122.32585755 </i>
   </energy>
  </scstep>
  <scstep>
   <time name="total">  180.68  181.51</time>
   <energy>
    <i name="e_fr_energy">   -131.34622615 </i>
    <i name="e_wo_entrp">   -131.34549564 </i>
    <i name="e_0_energy">   -131.34586090 </i>
   </energy>
  </scstep>
  <scstep>
   <time name="total">  148.33  148.77</time>
   <energy>
    <i name="e_fr_energy">   -125.40210794 </i>
    <i name="e_wo_entrp">   -125.40137586 </i>
    <i name="e_0_energy">   -125.40174190 </i>
   </energy>
  </scstep>
  <scstep>
   <time name="total">  141.93  142.58</time>
   <energy>
    <i name="e_fr_energy">   -125.52838838 </i>
    <i name="e_wo_entrp">   -125.52696440 </i>
    <i name="e_0_energy">   -125.52767639 </i>
   </energy>
  </scstep>
  <scstep>
   <time name="total">  141.05  141.17</time>
   <energy>
    <i name="e_fr_energy">   -124.92896012 </i>
    <i name="e_wo_entrp">   -124.92797145 </i>
    <i name="e_0_energy">   -124.92846578 </i>
   </energy>
  </scstep>
  <scstep>
   <time name="total">  140.75  141.15</time>
   <energy>
    <i name="e_fr_energy">   -124.92980893 </i>
    <i name="e_wo_entrp">   -124.92941018 </i>
    <i name="e_0_energy">   -124.92960955 </i>
   </energy>
  </scstep>
  <scstep>
   <time name="total">  145.96  146.32</time>
   <energy>
    <i name="e_fr_energy">   -124.77069387 </i>
    <i name="e_wo_entrp">   -124.76990872 </i>
    <i name="e_0_energy">   -124.77030129 </i>
   </energy>
  </scstep>
  <scstep>
   <time name="total">  149.20  149.60</time>
   <energy>
    <i name="e_fr_energy">   -124.77142831 </i>
    <i name="e_wo_entrp">   -124.77060257 </i>
    <i name="e_0_energy">   -124.77101544 </i>
   </energy>
  </scstep>
  <scstep>
   <time name="total">  180.09  180.24</time>
   <energy>
    <i name="e_fr_energy">   -119.89295059 </i>
    <i name="e_wo_entrp">   -119.89295059 </i>
    <i name="e_0_energy">   -119.89295059 </i>
   </energy>
  </scstep>
  <scstep>
   <time name="total">  148.45  148.59</time>
   <energy>
    <i name="e_fr_energy">   -114.49030924 </i>
    <i name="e_wo_entrp">   -114.49030441 </i>
[...]
       <r>     2.8039     0.0000     0.0000 </r>
       <r>     2.8711     0.0000     0.0000 </r>
       <r>     2.9383     0.0000     0.0000 </r>
       <r>     3.0054     0.0000     0.0000 </r>
       <r>     3.0726     0.0000     0.0000 </r>
       <r>     3.1398     0.0000     0.0000 </r>
       <r>     3.2070     0.0000     0.0000 </r>
       <r>     3.2742     0.0000     0.0000 </r>
       <r>     3.3413     0.0000     0.0000 </r>
       <r>     3.4085     0.0000     0.0000 </r>
       <r>     3.4757     0.0000     0.0000 </r>
       <r>     3.5429     0.0000     0.0000 </r>
       <r>     3.6100     0.0000     0.0000 </r>
       <r>     3.6772     0.0000     0.0000 </r>
       <r>     3.7444     0.0000     0.0000 </r>
       <r>     3.8116     0.0000     0.0000 </r>
       <r>     3.8788     0.0000     0.0000 </r>
       <r>     3.9459     0.0000     0.0000 </r>
       <r>     4.0131     0.0000     0.0000 </r>
       <r>     4.0803     0.0000     0.0000 </r>
       <r>     4.1475     0.0000     0.0000 </r>
       <r>     4.2147     0.0000     0.0000 </r>
       <r>     4.2818     0.0000     0.0000 </r>
       <r>     4.3490     0.0000     0.0000 </r>
       <r>     4.4162     0.0000     0.0000 </r>
       <r>     4.4834     0.0000     0.0000 </r>
       <r>     4.5506     0.0000     0.0000 </r>
       <r>     4.6177     0.0000     0.0000 </r>
       <r>     4.6849     0.0000     0.0000 </r>
       <r>     4.7521     0.0000     0.0000 </r>
       <r>     4.8193     0.0000     0.0000 </r>
       <r>     4.8864     0.0000     0.0000 </r>
       <r>     4.9536     0.0000     0.0000 </r>
       <r>     5.0208     0.0000     0.0000 </r>
       <r>     5.0880     0.0000     0.0000 </r>
       <r>     5.1552     0.0000     0.0000 </r>
       <r>     5.2223     0.0000     0.0000 </r>
       <r>     5.2895     0.0000     0.0000 </r>
       <r>     5.3567     0.0000     0.0000 </r>
       <r>     5.4239     0.0000     0.0000 </r>
       <r>     5.4911     0.0000     0.0000 </r>
       <r>     5.5582     0.0000     0.0000 </r>
       <r>     5.6254     0.0000     0.0000 </r>
       <r>     5.6926     0.0000     0.0000 </r>
       <r>     5.7598     0.0000     0.0000 </r>
       <r>     5.8270     0.0000     0.0000 </r>
       <r>     5.8941     0.0000     0.0000 </r>
       <r>     5.9613     0.0000     0.0000 </r>
       <r>     6.0285     0.0000     0.0000 </r>
       <r>     6.0957     0.0000     0.0000 </r>
       <r>     6.1628     0.0000     0.0000 </r>
       <r>     6.2300     0.0000     0.0000 </r>
       <r>     6.2972     0.0000     0.0000 </r>
       <r>     6.3644     0.0000     0.0000 </r>
       <r>     6.4316     0.0000     0.0000 </r>
       <r>     6.4987     0.0000     0.0000 </r>
       <r>     6.5659     0.0000     0.0000 </r>
       <r>     6.6331     0.0000     0.0000 </r>
       <r>     6.7003     0.0000     0.0000 </r>
       <r>     6.7675     0.0000     0.0000 </r>
       <r>     6.8346     0.0000     0.0000 </r>
      </set>
      <set comment="spin 4">
       <r>   -13.3191     0.0000     0.0000 </r>
       <r>   -13.2519     0.0000     0.0000 </r>
       <r>   -13.1847     0.0000     0.0000 </r>
       <r>   -13.1175     0.0000     0.0000 </r>
       <r>   -13.0504     0.0000     0.0000 </r>
       <r>   -12.9832     0.0000     0.0000 </r>
       <r>   -12.9160     0.0000     0.0000 </r>
       <r>   -12.8488     0.0000     0.0000 </r>
       <r>   -12.7816     0.0000     0.0000 </r>
       <r>   -12.7145     0.0000     0.0000 </r>
       <r>   -12.6473     0.0000     0.0000 </r>
       <r>   -12.5801     0.0000     0.0000 </r>
       <r>   -12.5129     0.0000     0.0000 </r>
       <r>   -12.4457     0.0000     0.0000 </r>
       <r>   -12.3786     0.0000     0.0000 </r>
       <r>   -12.3114     0.0000     0.0000 </r>
       <r>   -12.2442     0.0000     0.0000 </r>
       <r>   -12.1770     0.0000     0.0000 </r>
       <r>   -12.1099     0.0000     0.0000 </r>
       <r>   -12.0427     0.0000     0.0000 </r>
       <r>   -11.9755     0.0000     0.0000 </r>
       <r>   -11.9083     0.0000     0.0000 </r>
       <r>   -11.8411     0.0000     0.0000 </r>
       <r>   -11.7740     0.0000     0.0000 </r>
       <r>   -11.7068     0.0000     0.0000 </r>
       <r>   -11.6396     0.0000     0.0000 </r>
       <r>   -11.5724     0.0000     0.0000 </r>
       <r>   -11.5052     0.0000     0.0000 </r>
       <r>   -11.4381     0.0000     0.0000 </r>
       <r>   -11.3709     0.0000     0.0000 </r>
       <r>   -11.3037     0.0000     0.0000 </r>
       <r>   -11.2365     0.0000     0.0000 </r>
       <r>   -11.1693     0.0000     0.0000 </r>
       <r>   -11.1022     0.0000     0.0000 </r>
       <r>   -11.0350     0.0000     0.0000 </r>
       <r>   -10.9678     0.0000     0.0000 </r>
       <r>   -10.9006     0.0000     0.0000 </r>
       <r>   -10.8335     0.0000     0.0000 </r>
       <r>   -10.7663     0.0000     0.0000 </r>
       <r>   -10.6991     0.0000     0.0000 </r>
       <r>   -10.6319     0.0000     0.0000 </r>
       <r>   -10.5647     0.0000     0.0000 </r>
       <r>   -10.4976     0.0000     0.0000 </r>
       <r>   -10.4304     0.0000     0.0000 </r>
       <r>   -10.3632     0.0000     0.0000 </r>
       <r>   -10.2960     0.0000     0.0000 </r>
       <r>   -10.2288     0.0000     0.0000 </r>
       <r>   -10.1617     0.0000     0.0000 </r>
       <r>   -10.0945     0.0000     0.0000 </r>
       <r>   -10.0273     0.0000     0.0000 </r>
       <r>    -9.9601     0.0000     0.0000 </r>
       <r>    -9.8929     0.0000     0.0000 </r>
       <r>    -9.8258     0.0000     0.0000 </r>
       <r>    -9.7586     0.0000     0.0000 </r>
       <r>    -9.6914     0.0000     0.0000 </r>
       <r>    -9.6242     0.0000     0.0000 </r>
       <r>    -9.5570     0.0000     0.0000 </r>
       <r>    -9.4899     0.0000     0.0000 </r>
       <r>    -9.4227     0.0000     0.0000 </r>
       <r>    -9.3555     0.0000     0.0000 </r>
       <r>    -9.2883     0.0000     0.0000 </r>
       <r>    -9.2212     0.0000     0.0000 </r>
       <r>    -9.1540     0.0000     0.0000 </r>
       <r>    -9.0868     0.0000     0.0000 </r>
       <r>    -9.0196     0.0000     0.0000 </r>
       <r>    -8.9524     0.0000     0.0000 </r>
       <r>    -8.8853     0.0000     0.0000 </r>
       <r>    -8.8181     0.0000     0.0000 </r>
       <r>    -8.7509     0.0000     0.0000 </r>
       <r>    -8.6837     0.0000     0.0000 </r>
       <r>    -8.6165     0.0000     0.0000 </r>
       <r>    -8.5494     0.0000     0.0000 </r>
       <r>    -8.4822     0.0000     0.0000 </r>
       <r>    -8.4150     0.0000     0.0000 </r>
       <r>    -8.3478     0.0000     0.0000 </r>
       <r>    -8.2806     0.0000     0.0000 </r>
       <r>    -8.2135     0.0000     0.0000 </r>
       <r>    -8.1463     0.0000     0.0000 </r>
       <r>    -8.0791     0.0000     0.0000 </r>
       <r>    -8.0119     0.0000     0.0000 </r>
       <r>    -7.9448     0.0000     0.0000 </r>
       <r>    -7.8776     0.0000     0.0000 </r>
       <r>    -7.8104     0.0000     0.0000 </r>
       <r>    -7.7432     0.0000     0.0000 </r>
       <r>    -7.6760     0.0000     0.0000 </r>
       <r>    -7.6089     0.0000     0.0000 </r>
       <r>    -7.5417     0.0000     0.0000 </r>
       <r>    -7.4745     0.0000     0.0000 </r>
       <r>    -7.4073     0.0000     0.0000 </r>
       <r>    -7.3401     0.0000     0.0000 </r>
       <r>    -7.2730     0.0000     0.0000 </r>
       <r>    -7.2058     0.0000     0.0000 </r>
       <r>    -7.1386     0.0000     0.0000 </r>
       <r>    -7.0714     0.0000     0.0000 </r>
       <r>    -7.0042     0.0000     0.0000 </r>
       <r>    -6.9371     0.0000     0.0000 </r>
       <r>    -6.8699     0.0000     0.0000 </r>
       <r>    -6.8027     0.0000     0.0000 </r>
       <r>    -6.7355     0.0000     0.0000 </r>
       <r>    -6.6683     0.0000     0.0000 </r>
       <r>    -6.6012     0.0000     0.0000 </r>
       <r>    -6.5340     0.0000     0.0000 </r>
       <r>    -6.4668     0.0000     0.0000 </r>
       <r>    -6.3996     0.0000     0.0000 </r>
       <r>    -6.3325     0.0000     0.0000 </r>
       <r>    -6.2653     0.0000     0.0000 </r>
       <r>    -6.1981     0.0000     0.0000 </r>
       <r>    -6.1309     0.0000     0.0000 </r>
       <r>    -6.0637     0.0000     0.0000 </r>
       <r>    -5.9966     0.0000     0.0000 </r>
       <r>    -5.9294     0.0000     0.0000 </r>
       <r>    -5.8622     0.0000     0.0000 </r>
       <r>    -5.7950     0.0000     0.0000 </r>
       <r>    -5.7278     0.0000     0.0000 </r>
       <r>    -5.6607     0.0000     0.0000 </r>
       <r>    -5.5935     0.0000     0.0000 </r>
       <r>    -5.5263     0.0000     0.0000 </r>
       <r>    -5.4591     0.0000     0.0000 </r>
       <r>    -5.3919     0.0000     0.0000 </r>
       <r>    -5.3248     0.0000     0.0000 </r>
       <r>    -5.2576     0.0000     0.0000 </r>
       <r>    -5.1904     0.0000     0.0000 </r>
       <r>    -5.1232     0.0000     0.0000 </r>
       <r>    -5.0561     0.0000     0.0000 </r>
       <r>    -4.9889     0.0000     0.0000 </r>
       <r>    -4.9217     0.0000     0.0000 </r>
       <r>    -4.8545     0.0000     0.0000 </r>
       <r>    -4.7873     0.0000     0.0000 </r>
       <r>    -4.7202     0.0000     0.0000 </r>
       <r>    -4.6530     0.0000     0.0000 </r>
       <r>    -4.5858     0.0000     0.0000 </r>
       <r>    -4.5186     0.0000     0.0000 </r>
       <r>    -4.4514     0.0000     0.0000 </r>
       <r>    -4.3843     0.0000     0.0000 </r>
       <r>    -4.3171     0.0000     0.0000 </r>
       <r>    -4.2499     0.0000     0.0000 </r>
       <r>    -4.1827     0.0000     0.0000 </r>
       <r>    -4.1155     0.0000     0.0000 </r>
       <r>    -4.0484     0.0000     0.0000 </r>
       <r>    -3.9812     0.0000     0.0000 </r>
       <r>    -3.9140     0.0000     0.0000 </r>
       <r>    -3.8468     0.0000     0.0000 </r>
       <r>    -3.7796     0.0000     0.0000 </r>
       <r>    -3.7125     0.0000     0.0000 </r>
       <r>    -3.6453     0.0000     0.0000 </r>
       <r>    -3.5781     0.0000     0.0000 </r>
       <r>    -3.5109     0.0000     0.0000 </r>
       <r>    -3.4438     0.0000     0.0000 </r>
       <r>    -3.3766     0.0000     0.0000 </r>
       <r>    -3.3094     0.0000     0.0000 </r>
       <r>    -3.2422     0.0000     0.0000 </r>
       <r>    -3.1750     0.0000     0.0000 </r>
       <r>    -3.1079     0.0000     0.0000 </r>
       <r>    -3.0407     0.0000     0.0000 </r>
       <r>    -2.9735     0.0000     0.0000 </r>
       <r>    -2.9063     0.0000     0.0000 </r>
       <r>    -2.8391     0.0000     0.0000 </r>
       <r>    -2.7720     0.0000     0.0000 </r>
       <r>    -2.7048     0.0000     0.0000 </r>
       <r>    -2.6376     0.0000     0.0000 </r>
       <r>    -2.5704     0.0000     0.0000 </r>
       <r>    -2.5032     0.0000     0.0000 </r>
       <r>    -2.4361     0.0000     0.0000 </r>
       <r>    -2.3689     0.0000     0.0000 </r>
       <r>    -2.3017     0.0000     0.0000 </r>
       <r>    -2.2345     0.0000     0.0000 </r>
       <r>    -2.1674     0.0000     0.0000 </r>
       <r>    -2.1002     0.0000     0.0000 </r>
       <r>    -2.0330     0.0000     0.0000 </r>
       <r>    -1.9658     0.0000     0.0000 </r>
       <r>    -1.8986     0.0000     0.0000 </r>
       <r>    -1.8315     0.0000     0.0000 </r>
       <r>    -1.7643     0.0000     0.0000 </r>
       <r>    -1.6971     0.0000     0.0000 </r>
       <r>    -1.6299     0.0000     0.0000 </r>
       <r>    -1.5627     0.0000     0.0000 </r>
       <r>    -1.4956     0.0000     0.0000 </r>
       <r>    -1.4284     0.0000     0.0000 </r>
       <r>    -1.3612     0.0000     0.0000 </r>
       <r>    -1.2940     0.0000     0.0000 </r>
       <r>    -1.2268     0.0000     0.0000 </r>
       <r>    -1.1597     0.0000     0.0000 </r>
       <r>    -1.0925     0.0000     0.0000 </r>
       <r>    -1.0253     0.0000     0.0000 </r>
       <r>    -0.9581     0.0000     0.0000 </r>
       <r>    -0.8910     0.0000     0.0000 </r>
       <r>    -0.8238     0.0000     0.0000 </r>
       <r>    -0.7566     0.0000     0.0000 </r>
       <r>    -0.6894     0.0000     0.0000 </r>
       <r>    -0.6222     0.0000     0.0000 </r>
       <r>    -0.5551     0.0000     0.0000 </r>
       <r>    -0.4879     0.0000     0.0000 </r>
       <r>    -0.4207     0.0000     0.0000 </r>
       <r>    -0.3535     0.0000     0.0000 </r>
       <r>    -0.2863     0.0000     0.0000 </r>
       <r>    -0.2192     0.0000     0.0000 </r>
       <r>    -0.1520     0.0000     0.0000 </r>
       <r>    -0.0848     0.0000     0.0000 </r>
       <r>    -0.0176     0.0000     0.0000 </r>
       <r>     0.0496     0.0000     0.0000 </r>
       <r>     0.1167     0.0000     0.0000 </r>
       <r>     0.1839     0.0000     0.0000 </r>
       <r>     0.2511     0.0000     0.0000 </r>
       <r>     0.3183     0.0000     0.0000 </r>
       <r>     0.3855     0.0000     0.0000 </r>
       <r>     0.4526     0.0000     0.0000 </r>
       <r>     0.5198     0.0000     0.0000 </r>
       <r>     0.5870     0.0000     0.0000 </r>
       <r>     0.6542     0.0000     0.0000 </r>
       <r>     0.7213     0.0000     0.0000 </r>
       <r>     0.7885     0.0000     0.0000 </r>
       <r>     0.8557     0.0000     0.0000 </r>
       <r>     0.9229     0.0000     0.0000 </r>
       <r>     0.9901     0.0000     0.0000 </r>
       <r>     1.0572     0.0000     0.0000 </r>
       <r>     1.1244     0.0000     0.0000 </r>
       <r>     1.1916     0.0000     0.0000 </r>
       <r>     1.2588     0.0000     0.0000 </r>
       <r>     1.3260     0.0000     0.0000 </r>
       <r>     1.3931     0.0000     0.0000 </r>
       <r>     1.4603     0.0000     0.0000 </r>
       <r>     1.5275     0.0000     0.0000 </r>
       <r>     1.5947     0.0000     0.0000 </r>
       <r>     1.6619     0.0000     0.0000 </r>
       <r>     1.7290     0.0000     0.0000 </r>
       <r>     1.7962     0.0000     0.0000 </r>
       <r>     1.8634     0.0000     0.0000 </r>
       <r>     1.9306     0.0000     0.0000 </r>
       <r>     1.9977     0.0000     0.0000 </r>
       <r>     2.0649     0.0000     0.0000 </r>
       <r>     2.1321     0.0000     0.0000 </r>
       <r>     2.1993     0.0000     0.0000 </r>
       <r>     2.2665     0.0000     0.0000 </r>
       <r>     2.3336     0.0000     0.0000 </r>
       <r>     2.4008     0.0000     0.0000 </r>
       <r>     2.4680     0.0000     0.0000 </r>
       <r>     2.5352     0.0000     0.0000 </r>
       <r>     2.6024     0.0000     0.0000 </r>
       <r>     2.6695     0.0000     0.0000 </r>
       <r>     2.7367     0.0000     0.0000 </r>
       <r>     2.8039     0.0000     0.0000 </r>
       <r>     2.8711     0.0000     0.0000 </r>
       <r>     2.9383     0.0000     0.0000 </r>
       <r>     3.0054     0.0000     0.0000 </r>
       <r>     3.0726     0.0000     0.0000 </r>
       <r>     3.1398     0.0000     0.0000 </r>
       <r>     3.2070     0.0000     0.0000 </r>
       <r>     3.2742     0.0000     0.0000 </r>
       <r>     3.3413     0.0000     0.0000 </r>
       <r>     3.4085     0.0000     0.0000 </r>
       <r>     3.4757     0.0000     0.0000 </r>
       <r>     3.5429     0.0000     0.0000 </r>
       <r>     3.6100     0.0000     0.0000 </r>
       <r>     3.6772     0.0000     0.0000 </r>
       <r>     3.7444     0.0000     0.0000 </r>
       <r>     3.8116     0.0000     0.0000 </r>
       <r>     3.8788     0.0000     0.0000 </r>
       <r>     3.9459     0.0000     0.0000 </r>
       <r>     4.0131     0.0000     0.0000 </r>
       <r>     4.0803     0.0000     0.0000 </r>
       <r>     4.1475     0.0000     0.0000 </r>
       <r>     4.2147     0.0000     0.0000 </r>
       <r>     4.2818     0.0000     0.0000 </r>
       <r>     4.3490     0.0000     0.0000 </r>
       <r>     4.4162     0.0000     0.0000 </r>
       <r>     4.4834     0.0000     0.0000 </r>
       <r>     4.5506     0.0000     0.0000 </r>
       <r>     4.6177     0.0000     0.0000 </r>
       <r>     4.6849     0.0000     0.0000 </r>
       <r>     4.7521     0.0000     0.0000 </r>
       <r>     4.8193     0.0000     0.0000 </r>
       <r>     4.8864     0.0000     0.0000 </r>
       <r>     4.9536     0.0000     0.0000 </r>
       <r>     5.0208     0.0000     0.0000 </r>
       <r>     5.0880     0.0000     0.0000 </r>
       <r>     5.1552     0.0000     0.0000 </r>
       <r>     5.2223     0.0000     0.0000 </r>
       <r>     5.2895     0.0000     0.0000 </r>
       <r>     5.3567     0.0000     0.0000 </r>
       <r>     5.4239     0.0000     0.0000 </r>
       <r>     5.4911     0.0000     0.0000 </r>
       <r>     5.5582     0.0000     0.0000 </r>
       <r>     5.6254     0.0000     0.0000 </r>
       <r>     5.6926     0.0000     0.0000 </r>
       <r>     5.7598     0.0000     0.0000 </r>
       <r>     5.8270     0.0000     0.0000 </r>
       <r>     5.8941     0.0000     0.0000 </r>
       <r>     5.9613     0.0000     0.0000 </r>
       <r>     6.0285     0.0000     0.0000 </r>
       <r>     6.0957     0.0000     0.0000 </r>
       <r>     6.1628     0.0000     0.0000 </r>
       <r>     6.2300     0.0000     0.0000 </r>
       <r>     6.2972     0.0000     0.0000 </r>
       <r>     6.3644     0.0000     0.0000 </r>
       <r>     6.4316     0.0000     0.0000 </r>
       <r>     6.4987     0.0000     0.0000 </r>
       <r>     6.5659     0.0000     0.0000 </r>
       <r>     6.6331     0.0000     0.0000 </r>
       <r>     6.7003     0.0000     0.0000 </r>
       <r>     6.7675     0.0000     0.0000 </r>
       <r>     6.8346     0.0000     0.0000 </r>
      </set>
     </set>
    </array>
   </total>
  </dos>
 </calculation>
 <structure name="finalpos" >
  <crystal>
   <varray name="basis" >
    <v>       6.90400000       0.00000000       0.00000000 </v>
    <v>       0.00000000      12.73600000       0.00000000 </v>
    <v>       0.00000000       0.00000000      16.00000000 </v>
   </varray>
   <i name="volume">   1406.86950400 </i>
   <varray name="rec_basis" >
    <v>       0.14484357       0.00000000       0.00000000 </v>
    <v>       0.00000000       0.07851759       0.00000000 </v>
    <v>       0.00000000       0.00000000       0.06250000 </v>
   </varray>
  </crystal>
  <varray name="positions" >
   <v>       0.25000000       0.05081658       0.12913313 </v>
   <v>       0.75000000       0.05081658       0.12913313 </v>
   <v>       0.25000000       0.55081658       0.12913313 </v>
   <v>       0.75000000       0.55081658       0.12913313 </v>
   <v>       0.25000000       0.37457836       0.90758437 </v>
   <v>       0.75000000       0.37457836       0.90758437 </v>
   <v>       0.25000000       0.87457836       0.90758437 </v>
   <v>       0.75000000       0.87457836       0.90758437 </v>
   <v>       0.00000000       0.12870524       0.87086563 </v>
   <v>       0.50000000       0.12870524       0.87086563 </v>
   <v>       0.00000000       0.62870524       0.87086563 </v>
   <v>       0.50000000       0.62870524       0.87086563 </v>
   <v>       0.00000000       0.30494033       0.09241625 </v>
   <v>       0.50000000       0.30494033       0.09241625 </v>
   <v>       0.00000000       0.80494033       0.09241625 </v>
   <v>       0.50000000       0.80494033       0.09241625 </v>
   <v>       0.25000000       0.18029837       0.99406750 </v>
   <v>       0.75000000       0.18029837       0.99406750 </v>
   <v>       0.25000000       0.68029837       0.99406750 </v>
   <v>       0.75000000       0.68029837       0.99406750 </v>
   <v>       0.00000000       0.99921954       0.00593312 </v>
   <v>       0.50000000       0.99921954       0.00593312 </v>
   <v>       0.00000000       0.49921954       0.00593312 </v>
   <v>       0.50000000       0.49921954       0.00593312 </v>
  </varray>
 </structure>
</modeling>
