 running on  256 total cores
 distrk:  each k-point on  256 cores,    1 groups
 distr:  one band on    8 cores,   32 groups
 using from now: INCAR     
 vasp.5.3.5 31Mar14 (build Mar 18 2017 11:34:20) complex                        
  
 POSCAR found :  2 types and      24 ions
 scaLAPACK will be used

 ----------------------------------------------------------------------------- 
|                                                                             |
|  ADVICE TO THIS USER RUNNING 'VASP/VAMP'   (HEAR YOUR MASTER'S VOICE ...):  |
|                                                                             |
|      You have a (more or less) 'large supercell' and for larger cells       |
|      it might be more efficient to use real space projection opertators     |
|      So try LREAL= Auto  in the INCAR   file.                               |
|      Mind: At the moment your POTCAR file does not contain real space       |
|       projectors, and has to be modified,  BUT if you                       |
|      want to do an extremely  accurate calculation you might also keep the  |
|      reciprocal projection scheme          (i.e. LREAL=.FALSE.)             |
|                                                                             |
 ----------------------------------------------------------------------------- 

 LDA part: xc-table for Pade appr. of Perdew
 POSCAR, INCAR and KPOINTS ok, starting setup
 WARNING: small aliasing (wrap around) errors must be expected
 FFT: planning ...
 WAVECAR not read
 WARNING: chargedensity file is incomplete
 entering main loop
       N       E                     dE             d eps       ncg     rms          rms(c)
DAV:   1     0.721980013364E+03    0.72198E+03   -0.38989E+04145152   0.713E+02
DAV:   2    -0.543280540459E+02   -0.77631E+03   -0.74103E+03201632   0.159E+02
DAV:   3    -0.136841086924E+03   -0.82513E+02   -0.80449E+02180672   0.550E+01
DAV:   4    -0.140143302270E+03   -0.33022E+01   -0.32785E+01197344   0.126E+01
DAV:   5    -0.140224696083E+03   -0.81394E-01   -0.81345E-01198816   0.223E+00    0.490E+01
DAV:   6    -0.112711035472E+03    0.27514E+02   -0.88786E+01145760   0.190E+01    0.236E+01
DAV:   7    -0.116756301914E+03   -0.40453E+01   -0.16807E+01182496   0.118E+01    0.201E+01
DAV:   8    -0.115035503966E+03    0.17208E+01   -0.44306E+00175168   0.650E+00    0.915E+00
DAV:   9    -0.121850129667E+03   -0.68146E+01   -0.24891E+00165408   0.339E+00    0.627E+00
DAV:  10    -0.128774450479E+03   -0.69243E+01   -0.27325E+00165088   0.356E+00    0.461E+00
DAV:  11    -0.139837672922E+03   -0.11063E+02   -0.10154E+01165056   0.569E+00    0.201E+00
DAV:  12    -0.143805014577E+03   -0.39673E+01   -0.40636E+00178368   0.325E+00    0.156E+00
DAV:  13    -0.144787380319E+03   -0.98237E+00   -0.62528E-01171392   0.132E+00    0.104E+00
DAV:  14    -0.145058721133E+03   -0.27134E+00   -0.23380E-01182336   0.902E-01    0.699E-01
DAV:  15    -0.145311065243E+03   -0.25234E+00   -0.10693E-01181408   0.685E-01    0.570E-01
DAV:  16    -0.145496566845E+03   -0.18550E+00   -0.32858E-02179520   0.382E-01    0.301E-01
DAV:  17    -0.145635696047E+03   -0.13913E+00   -0.19926E-02189376   0.240E-01    0.157E-01
DAV:  18    -0.145702925339E+03   -0.67229E-01   -0.44783E-03188256   0.124E-01    0.957E-02
DAV:  19    -0.145716237855E+03   -0.13313E-01   -0.10356E-03184352   0.755E-02    0.695E-02
DAV:  20    -0.145725166771E+03   -0.89289E-02   -0.94527E-04177536   0.767E-02    0.526E-02
DAV:  21    -0.145734044611E+03   -0.88778E-02   -0.14926E-03177312   0.708E-02    0.330E-02
DAV:  22    -0.145736603666E+03   -0.25591E-02   -0.94702E-04177952   0.492E-02    0.230E-02
DAV:  23    -0.145736846990E+03   -0.24332E-03   -0.12282E-04189632   0.249E-02    0.170E-02
DAV:  24    -0.145737069779E+03   -0.22279E-03   -0.43166E-05162944   0.144E-02    0.113E-02
DAV:  25    -0.145737448392E+03   -0.37861E-03   -0.11793E-04158624   0.162E-02    0.837E-03
DAV:  26    -0.145737536577E+03   -0.88185E-04   -0.28374E-05177760   0.782E-03    0.596E-03
DAV:  27    -0.145737630282E+03   -0.93706E-04   -0.77909E-06146752   0.510E-03    0.493E-03
DAV:  28    -0.145737708572E+03   -0.78290E-04   -0.50585E-06150368   0.464E-03    0.388E-03
DAV:  29    -0.145737763294E+03   -0.54722E-04   -0.61136E-06150944   0.367E-03    0.155E-03
DAV:  30    -0.145737773242E+03   -0.99479E-05   -0.65258E-07124288   0.138E-03
   1 F= -.14573777E+03 E0= -.14573396E+03  d E =-.763520E-02  mag=     0.0001     0.0000     0.0001
 Linear response reoptimize wavefunctions to high precision
DAV:   1    -0.145737779381E+03   -0.61393E-05   -0.40292E-07183712   0.750E-04
DAV:   2    -0.145737779382E+03   -0.59117E-09   -0.69733E-09147584   0.119E-04
DAV:   3    -0.145737779382E+03   -0.58208E-10   -0.15051E-09111808   0.396E-05
 Linear response DOF=          72
 Linear response progress:
  Degree of freedom:   1/ 72
       N       E                     dE             d eps       ncg     rms          rms(c)
RMM:   1    -0.483084923710E-01   -0.48308E-01    0.44208E-02364605   0.204E-01
RMM:   2    -0.463469237593E-01    0.19616E-02   -0.21501E-03237177   0.494E-02    0.126E-01
RMM:   3    -0.464375210902E-01   -0.90597E-04   -0.43970E-04224736   0.189E-02    0.141E-01
RMM:   4    -0.462648613108E-01    0.17266E-03   -0.18456E-04211005   0.115E-02    0.685E-02
RMM:   5    -0.462294614601E-01    0.35400E-04   -0.18077E-05223364   0.477E-03    0.139E-02
RMM:   6    -0.462309467390E-01   -0.14853E-05   -0.81030E-07248408   0.885E-04    0.443E-03
 force on displaced ion       1 direction 1 :  -8.557   0.000   0.000
 Linear response progress:
  Degree of freedom:   2/ 72
       N       E                     dE             d eps       ncg     rms          rms(c)
RMM:   1    -0.503244604787E-01   -0.50324E-01    0.35558E-02365947   0.203E-01
RMM:   2    -0.490075122602E-01    0.13169E-02   -0.18253E-03237154   0.462E-02    0.986E-02
RMM:   3    -0.490499269688E-01   -0.42415E-04   -0.26886E-04227345   0.150E-02    0.106E-01
RMM:   4    -0.489542380380E-01    0.95689E-04   -0.11829E-04214229   0.923E-03    0.510E-02
RMM:   5    -0.489312088095E-01    0.23029E-04   -0.17907E-05224120   0.448E-03    0.180E-02
RMM:   6    -0.489303524080E-01    0.85640E-06   -0.37236E-06237456   0.165E-03    0.549E-03
 force on displaced ion       1 direction 2 :   0.000  -4.708   0.209
 Linear response progress:
  Degree of freedom:   3/ 72
       N       E                     dE             d eps       ncg     rms          rms(c)
RMM:   1    -0.525384872679E-01   -0.52538E-01    0.41839E-02369030   0.214E-01
RMM:   2    -0.501608422680E-01    0.23776E-02   -0.23803E-03239254   0.540E-02    0.179E-01
RMM:   3    -0.502113559053E-01   -0.50514E-04   -0.77314E-04222531   0.246E-02    0.183E-01
RMM:   4    -0.499715821443E-01    0.23977E-03   -0.34743E-04214359   0.154E-02    0.969E-02
RMM:   5    -0.499719267478E-01   -0.34460E-06   -0.14029E-04220697   0.105E-02    0.539E-02
RMM:   6    -0.499082768450E-01    0.63650E-04   -0.70809E-05224734   0.732E-03    0.179E-02
RMM:   7    -0.499085721236E-01   -0.29528E-06    0.10395E-06235969   0.182E-03    0.109E-02
 force on displaced ion       1 direction 3 :   0.000   0.227 -12.969
 Linear response progress:
  Degree of freedom:   4/ 72
       N       E                     dE             d eps       ncg     rms          rms(c)
RMM:   1    -0.483084924015E-01   -0.48308E-01    0.44208E-02364603   0.204E-01
RMM:   2    -0.463469272018E-01    0.19616E-02   -0.21501E-03237173   0.494E-02    0.126E-01
RMM:   3    -0.464375208594E-01   -0.90594E-04   -0.43971E-04224737   0.189E-02    0.141E-01
RMM:   4    -0.462648622580E-01    0.17266E-03   -0.18458E-04210985   0.115E-02    0.685E-02
RMM:   5    -0.462294650003E-01    0.35397E-04   -0.18092E-05223361   0.477E-03    0.139E-02
RMM:   6    -0.462309499145E-01   -0.14849E-05   -0.81168E-07248460   0.882E-04    0.443E-03
 force on displaced ion       2 direction 1 :  -8.557  -0.000   0.000
 Linear response progress:
  Degree of freedom:   5/ 72
       N       E                     dE             d eps       ncg     rms          rms(c)
RMM:   1    -0.503244581346E-01   -0.50324E-01    0.35558E-02365955   0.203E-01
RMM:   2    -0.490075100237E-01    0.13169E-02   -0.18253E-03237162   0.462E-02    0.986E-02
RMM:   3    -0.490499222507E-01   -0.42412E-04   -0.26888E-04227323   0.150E-02    0.106E-01
RMM:   4    -0.489542322277E-01    0.95690E-04   -0.11828E-04214230   0.923E-03    0.510E-02
RMM:   5    -0.489312042611E-01    0.23028E-04   -0.17900E-05224138   0.448E-03    0.180E-02
RMM:   6    -0.489303547364E-01    0.84952E-06   -0.37209E-06237473   0.165E-03    0.549E-03
 force on displaced ion       2 direction 2 :  -0.000  -4.708   0.209
 Linear response progress:
  Degree of freedom:   6/ 72
       N       E                     dE             d eps       ncg     rms          rms(c)
RMM:   1    -0.525384871507E-01   -0.52538E-01    0.41839E-02369028   0.214E-01
RMM:   2    -0.501608562202E-01    0.23776E-02   -0.23804E-03239256   0.540E-02    0.179E-01
RMM:   3    -0.502113500667E-01   -0.50494E-04   -0.77304E-04222538   0.246E-02    0.183E-01
RMM:   4    -0.499715876752E-01    0.23976E-03   -0.34746E-04214353   0.154E-02    0.969E-02
RMM:   5    -0.499719321548E-01   -0.34448E-06   -0.14031E-04220700   0.105E-02    0.539E-02
RMM:   6    -0.499082757491E-01    0.63656E-04   -0.70733E-05224713   0.732E-03    0.179E-02
RMM:   7    -0.499085791785E-01   -0.30343E-06    0.10147E-06235904   0.182E-03    0.109E-02
 force on displaced ion       2 direction 3 :  -0.000   0.227 -12.969
 Linear response progress:
  Degree of freedom:   7/ 72
       N       E                     dE             d eps       ncg     rms          rms(c)
RMM:   1    -0.483084364603E-01   -0.48308E-01    0.44208E-02364602   0.204E-01
RMM:   2    -0.463469274745E-01    0.19615E-02   -0.21502E-03237198   0.494E-02    0.126E-01
RMM:   3    -0.464375235038E-01   -0.90596E-04   -0.43973E-04224744   0.189E-02    0.141E-01
RMM:   4    -0.462648510065E-01    0.17267E-03   -0.18457E-04211025   0.115E-02    0.685E-02
RMM:   5    -0.462294606716E-01    0.35390E-04   -0.18083E-05223377   0.477E-03    0.139E-02
RMM:   6    -0.462309561773E-01   -0.14955E-05   -0.81588E-07248466   0.882E-04    0.443E-03
 force on displaced ion       3 direction 1 :  -8.557  -0.000  -0.000
 Linear response progress:
  Degree of freedom:   8/ 72
       N       E                     dE             d eps       ncg     rms          rms(c)
RMM:   1    -0.503244615830E-01   -0.50324E-01    0.35558E-02365956   0.203E-01
RMM:   2    -0.490075167659E-01    0.13169E-02   -0.18253E-03237164   0.462E-02    0.986E-02
RMM:   3    -0.490499238689E-01   -0.42407E-04   -0.26890E-04227350   0.150E-02    0.106E-01
RMM:   4    -0.489542482824E-01    0.95676E-04   -0.11828E-04214229   0.923E-03    0.510E-02
RMM:   5    -0.489312068134E-01    0.23041E-04   -0.17908E-05224123   0.448E-03    0.180E-02
RMM:   6    -0.489303550523E-01    0.85176E-06   -0.37210E-06237466   0.165E-03    0.549E-03
 force on displaced ion       3 direction 2 :  -0.000  -4.708   0.209
 Linear response progress:
  Degree of freedom:   9/ 72
       N       E                     dE             d eps       ncg     rms          rms(c)
RMM:   1    -0.525384745585E-01   -0.52538E-01    0.41839E-02369037   0.214E-01
RMM:   2    -0.501608434145E-01    0.23776E-02   -0.23803E-03239268   0.540E-02    0.179E-01
RMM:   3    -0.502113583713E-01   -0.50515E-04   -0.77312E-04222531   0.246E-02    0.183E-01
RMM:   4    -0.499715928618E-01    0.23977E-03   -0.34747E-04214353   0.154E-02    0.969E-02
RMM:   5    -0.499719192257E-01   -0.32636E-06   -0.14032E-04220700   0.105E-02    0.539E-02
RMM:   6    -0.499082690102E-01    0.63650E-04   -0.70778E-05224757   0.732E-03    0.179E-02
RMM:   7    -0.499085730444E-01   -0.30403E-06    0.10145E-06236014   0.181E-03    0.109E-02
 force on displaced ion       3 direction 3 :  -0.000   0.227 -12.969
 Linear response progress:
  Degree of freedom:  10/ 72
       N       E                     dE             d eps       ncg     rms          rms(c)
RMM:   1    -0.483084371422E-01   -0.48308E-01    0.44208E-02364602   0.204E-01
RMM:   2    -0.463469273190E-01    0.19615E-02   -0.21502E-03237189   0.494E-02    0.126E-01
RMM:   3    -0.464375289396E-01   -0.90602E-04   -0.43972E-04224756   0.189E-02    0.141E-01
RMM:   4    -0.462648719342E-01    0.17266E-03   -0.18456E-04210991   0.115E-02    0.685E-02
RMM:   5    -0.462294592239E-01    0.35413E-04   -0.18072E-05223373   0.477E-03    0.139E-02
RMM:   6    -0.462309515393E-01   -0.14923E-05   -0.80529E-07248459   0.880E-04    0.443E-03
 force on displaced ion       4 direction 1 :  -8.557   0.000   0.000
 Linear response progress:
  Degree of freedom:  11/ 72
       N       E                     dE             d eps       ncg     rms          rms(c)
RMM:   1    -0.503244644952E-01   -0.50324E-01    0.35558E-02365950   0.203E-01
RMM:   2    -0.490075169789E-01    0.13169E-02   -0.18253E-03237157   0.462E-02    0.986E-02
RMM:   3    -0.490499224621E-01   -0.42405E-04   -0.26887E-04227351   0.150E-02    0.106E-01
RMM:   4    -0.489542384681E-01    0.95684E-04   -0.11828E-04214227   0.923E-03    0.510E-02
RMM:   5    -0.489312106510E-01    0.23028E-04   -0.17897E-05224129   0.448E-03    0.180E-02
RMM:   6    -0.489303559496E-01    0.85470E-06   -0.37249E-06237453   0.165E-03    0.549E-03
 force on displaced ion       4 direction 2 :   0.000  -4.708   0.209
 Linear response progress:
  Degree of freedom:  12/ 72
       N       E                     dE             d eps       ncg     rms          rms(c)
RMM:   1    -0.525384904605E-01   -0.52538E-01    0.41839E-02369034   0.214E-01
RMM:   2    -0.501608431755E-01    0.23776E-02   -0.23803E-03239271   0.540E-02    0.179E-01
RMM:   3    -0.502113553532E-01   -0.50512E-04   -0.77315E-04222539   0.246E-02    0.183E-01
RMM:   4    -0.499715840471E-01    0.23977E-03   -0.34743E-04214366   0.154E-02    0.969E-02
RMM:   5    -0.499719235705E-01   -0.33952E-06   -0.14031E-04220699   0.105E-02    0.539E-02
RMM:   6    -0.499082775474E-01    0.63646E-04   -0.70771E-05224770   0.732E-03    0.179E-02
RMM:   7    -0.499085713257E-01   -0.29378E-06    0.10073E-06236003   0.182E-03    0.109E-02
 force on displaced ion       4 direction 3 :   0.000   0.227 -12.969
 Linear response progress:
  Degree of freedom:  13/ 72
       N       E                     dE             d eps       ncg     rms          rms(c)
RMM:   1    -0.479571802369E-01   -0.47957E-01    0.35683E-02359997   0.197E-01
RMM:   2    -0.457961236969E-01    0.21611E-02   -0.22081E-03238545   0.473E-02    0.104E-01
RMM:   3    -0.458308277827E-01   -0.34704E-04   -0.27831E-04226082   0.154E-02    0.109E-01
RMM:   4    -0.457316632868E-01    0.99164E-04   -0.13348E-04213503   0.974E-03    0.540E-02
RMM:   5    -0.456947309434E-01    0.36932E-04   -0.21150E-05223359   0.490E-03    0.113E-02
RMM:   6    -0.456979972347E-01   -0.32663E-05   -0.10045E-06251239   0.804E-04    0.413E-03
 force on displaced ion       5 direction 1 :  -6.202   0.000   0.000
 Linear response progress:
  Degree of freedom:  14/ 72
       N       E                     dE             d eps       ncg     rms          rms(c)
RMM:   1    -0.511028918147E-01   -0.51103E-01    0.41964E-02370447   0.208E-01
RMM:   2    -0.488953473343E-01    0.22075E-02   -0.24184E-03239579   0.511E-02    0.122E-01
RMM:   3    -0.489428477116E-01   -0.47500E-04   -0.37404E-04229621   0.176E-02    0.125E-01
RMM:   4    -0.488229043169E-01    0.11994E-03   -0.17065E-04216522   0.109E-02    0.651E-02
RMM:   5    -0.487904106949E-01    0.32494E-04   -0.36730E-05223300   0.606E-03    0.213E-02
RMM:   6    -0.487808786626E-01    0.95320E-05   -0.14061E-05228769   0.316E-03    0.101E-02
 force on displaced ion       5 direction 2 :   0.000  -8.082  -0.692
 Linear response progress:
  Degree of freedom:  15/ 72
       N       E                     dE             d eps       ncg     rms          rms(c)
RMM:   1    -0.514764391273E-01   -0.51476E-01    0.30026E-02366442   0.201E-01
RMM:   2    -0.494044266463E-01    0.20720E-02   -0.21843E-03239939   0.478E-02    0.107E-01
RMM:   3    -0.494862199772E-01   -0.81793E-04   -0.32011E-04226467   0.165E-02    0.113E-01
RMM:   4    -0.493940588156E-01    0.92161E-04   -0.13470E-04219888   0.982E-03    0.597E-02
RMM:   5    -0.494103322205E-01   -0.16273E-04   -0.54351E-05222228   0.685E-03    0.310E-02
RMM:   6    -0.493907438310E-01    0.19588E-04   -0.25030E-05225696   0.435E-03    0.129E-02
RMM:   7    -0.493861485940E-01    0.45952E-05   -0.18974E-06238421   0.120E-03    0.808E-03
 force on displaced ion       5 direction 3 :   0.000  -0.717  -6.741
 Linear response progress:
  Degree of freedom:  16/ 72
       N       E                     dE             d eps       ncg     rms          rms(c)
RMM:   1    -0.479571786263E-01   -0.47957E-01    0.35683E-02360002   0.197E-01
RMM:   2    -0.457961209601E-01    0.21611E-02   -0.22081E-03238561   0.473E-02    0.104E-01
RMM:   3    -0.458308261126E-01   -0.34705E-04   -0.27827E-04226077   0.154E-02    0.109E-01
RMM:   4    -0.457316681028E-01    0.99158E-04   -0.13348E-04213515   0.974E-03    0.540E-02
RMM:   5    -0.456947273788E-01    0.36941E-04   -0.21135E-05223342   0.490E-03    0.112E-02
RMM:   6    -0.456979959168E-01   -0.32685E-05   -0.10069E-06251231   0.804E-04    0.413E-03
 force on displaced ion       6 direction 1 :  -6.202  -0.000  -0.000
 Linear response progress:
  Degree of freedom:  17/ 72
       N       E                     dE             d eps       ncg     rms          rms(c)
RMM:   1    -0.511028884216E-01   -0.51103E-01    0.41964E-02370445   0.208E-01
RMM:   2    -0.488953443099E-01    0.22075E-02   -0.24185E-03239595   0.511E-02    0.122E-01
RMM:   3    -0.489428407218E-01   -0.47496E-04   -0.37407E-04229619   0.176E-02    0.125E-01
RMM:   4    -0.488229033088E-01    0.11994E-03   -0.17059E-04216523   0.109E-02    0.651E-02
RMM:   5    -0.487904142296E-01    0.32489E-04   -0.36708E-05223315   0.606E-03    0.213E-02
RMM:   6    -0.487808791382E-01    0.95351E-05   -0.14036E-05228807   0.316E-03    0.101E-02
 force on displaced ion       6 direction 2 :   0.000  -8.082  -0.692
 Linear response progress:
  Degree of freedom:  18/ 72
       N       E                     dE             d eps       ncg     rms          rms(c)
RMM:   1    -0.514763836653E-01   -0.51476E-01    0.30026E-02366431   0.201E-01
RMM:   2    -0.494044354877E-01    0.20719E-02   -0.21845E-03239928   0.478E-02    0.107E-01
RMM:   3    -0.494862127427E-01   -0.81777E-04   -0.32009E-04226466   0.165E-02    0.113E-01
RMM:   4    -0.493940490047E-01    0.92164E-04   -0.13465E-04219867   0.981E-03    0.597E-02
RMM:   5    -0.494103214651E-01   -0.16272E-04   -0.54308E-05222234   0.685E-03    0.310E-02
RMM:   6    -0.493907372336E-01    0.19584E-04   -0.24984E-05225707   0.435E-03    0.129E-02
RMM:   7    -0.493861363981E-01    0.46008E-05   -0.18501E-06238417   0.120E-03    0.808E-03
 force on displaced ion       6 direction 3 :  -0.000  -0.717  -6.741
 Linear response progress:
  Degree of freedom:  19/ 72
       N       E                     dE             d eps       ncg     rms          rms(c)
RMM:   1    -0.479571247502E-01   -0.47957E-01    0.35684E-02359995   0.197E-01
RMM:   2    -0.457961186484E-01    0.21610E-02   -0.22081E-03238551   0.473E-02    0.104E-01
RMM:   3    -0.458308310521E-01   -0.34712E-04   -0.27829E-04226057   0.154E-02    0.109E-01
RMM:   4    -0.457316705221E-01    0.99161E-04   -0.13347E-04213498   0.974E-03    0.540E-02
RMM:   5    -0.456947334560E-01    0.36937E-04   -0.21156E-05223352   0.490E-03    0.113E-02
RMM:   6    -0.456979970615E-01   -0.32636E-05   -0.10000E-06251217   0.803E-04    0.413E-03
 force on displaced ion       7 direction 1 :  -6.202   0.000  -0.000
 Linear response progress:
  Degree of freedom:  20/ 72
       N       E                     dE             d eps       ncg     rms          rms(c)
RMM:   1    -0.511028718619E-01   -0.51103E-01    0.41964E-02370448   0.208E-01
RMM:   2    -0.488953429429E-01    0.22075E-02   -0.24184E-03239572   0.511E-02    0.122E-01
RMM:   3    -0.489428443757E-01   -0.47501E-04   -0.37406E-04229601   0.176E-02    0.125E-01
RMM:   4    -0.488228997529E-01    0.11994E-03   -0.17062E-04216536   0.109E-02    0.651E-02
RMM:   5    -0.487904150254E-01    0.32485E-04   -0.36721E-05223301   0.606E-03    0.213E-02
RMM:   6    -0.487808755502E-01    0.95395E-05   -0.14009E-05228787   0.316E-03    0.101E-02
 force on displaced ion       7 direction 2 :  -0.000  -8.082  -0.692
 Linear response progress:
  Degree of freedom:  21/ 72
       N       E                     dE             d eps       ncg     rms          rms(c)
RMM:   1    -0.514764697807E-01   -0.51476E-01    0.30025E-02366445   0.201E-01
RMM:   2    -0.494044237485E-01    0.20720E-02   -0.21844E-03239950   0.478E-02    0.107E-01
RMM:   3    -0.494862006799E-01   -0.81777E-04   -0.32013E-04226453   0.165E-02    0.113E-01
RMM:   4    -0.493940536713E-01    0.92147E-04   -0.13470E-04219882   0.982E-03    0.597E-02
RMM:   5    -0.494103321092E-01   -0.16278E-04   -0.54310E-05222220   0.685E-03    0.310E-02
RMM:   6    -0.493907336130E-01    0.19598E-04   -0.25011E-05225696   0.435E-03    0.129E-02
RMM:   7    -0.493861295037E-01    0.46041E-05   -0.18835E-06238440   0.121E-03    0.808E-03
 force on displaced ion       7 direction 3 :   0.000  -0.717  -6.741
 Linear response progress:
  Degree of freedom:  22/ 72
       N       E                     dE             d eps       ncg     rms          rms(c)
RMM:   1    -0.479571261076E-01   -0.47957E-01    0.35684E-02360002   0.197E-01
RMM:   2    -0.457961184755E-01    0.21610E-02   -0.22082E-03238549   0.473E-02    0.104E-01
RMM:   3    -0.458308298716E-01   -0.34711E-04   -0.27830E-04226066   0.154E-02    0.109E-01
RMM:   4    -0.457316628261E-01    0.99167E-04   -0.13348E-04213505   0.974E-03    0.540E-02
RMM:   5    -0.456947256172E-01    0.36937E-04   -0.21148E-05223362   0.490E-03    0.112E-02
RMM:   6    -0.456979899000E-01   -0.32643E-05   -0.10336E-06251197   0.803E-04    0.413E-03
 force on displaced ion       8 direction 1 :  -6.202  -0.000   0.000
 Linear response progress:
  Degree of freedom:  23/ 72
       N       E                     dE             d eps       ncg     rms          rms(c)
RMM:   1    -0.511028746342E-01   -0.51103E-01    0.41964E-02370449   0.208E-01
RMM:   2    -0.488953426061E-01    0.22075E-02   -0.24185E-03239585   0.511E-02    0.122E-01
RMM:   3    -0.489428341319E-01   -0.47492E-04   -0.37406E-04229593   0.176E-02    0.125E-01
RMM:   4    -0.488229090019E-01    0.11993E-03   -0.17064E-04216557   0.109E-02    0.651E-02
RMM:   5    -0.487904117100E-01    0.32497E-04   -0.36765E-05223327   0.606E-03    0.213E-02
RMM:   6    -0.487808643233E-01    0.95474E-05   -0.14015E-05228751   0.316E-03    0.101E-02
 force on displaced ion       8 direction 2 :  -0.000  -8.082  -0.692
 Linear response progress:
  Degree of freedom:  24/ 72
       N       E                     dE             d eps       ncg     rms          rms(c)
RMM:   1    -0.514764701524E-01   -0.51476E-01    0.30025E-02366442   0.201E-01
RMM:   2    -0.494044238548E-01    0.20720E-02   -0.21844E-03239935   0.478E-02    0.107E-01
RMM:   3    -0.494862046755E-01   -0.81781E-04   -0.32015E-04226479   0.165E-02    0.113E-01
RMM:   4    -0.493940517250E-01    0.92153E-04   -0.13464E-04219862   0.981E-03    0.597E-02
RMM:   5    -0.494103309042E-01   -0.16279E-04   -0.54326E-05222220   0.685E-03    0.310E-02
RMM:   6    -0.493907299758E-01    0.19601E-04   -0.25014E-05225676   0.435E-03    0.129E-02
RMM:   7    -0.493861383803E-01    0.45916E-05   -0.18864E-06238427   0.120E-03    0.808E-03
 force on displaced ion       8 direction 3 :   0.000  -0.717  -6.741
 Linear response progress:
  Degree of freedom:  25/ 72
       N       E                     dE             d eps       ncg     rms          rms(c)
RMM:   1    -0.483083015323E-01   -0.48308E-01    0.44208E-02364598   0.204E-01
RMM:   2    -0.463444158218E-01    0.19639E-02   -0.21506E-03237223   0.494E-02    0.126E-01
RMM:   3    -0.464351170371E-01   -0.90701E-04   -0.43987E-04224939   0.189E-02    0.141E-01
RMM:   4    -0.462623429405E-01    0.17277E-03   -0.18463E-04210971   0.115E-02    0.685E-02
RMM:   5    -0.462269591428E-01    0.35384E-04   -0.18177E-05223399   0.477E-03    0.139E-02
RMM:   6    -0.462284246599E-01   -0.14655E-05   -0.82053E-07248462   0.880E-04    0.443E-03
 force on displaced ion       9 direction 1 :  -8.557   0.000   0.000
 Linear response progress:
  Degree of freedom:  26/ 72
       N       E                     dE             d eps       ncg     rms          rms(c)
RMM:   1    -0.503243434056E-01   -0.50324E-01    0.35558E-02365957   0.203E-01
RMM:   2    -0.490107418903E-01    0.13136E-02   -0.18254E-03237150   0.462E-02    0.986E-02
RMM:   3    -0.490514252234E-01   -0.40683E-04   -0.26881E-04227340   0.150E-02    0.106E-01
RMM:   4    -0.489564224005E-01    0.95003E-04   -0.11815E-04214235   0.923E-03    0.510E-02
RMM:   5    -0.489328698683E-01    0.23553E-04   -0.17798E-05224084   0.448E-03    0.180E-02
RMM:   6    -0.489319598093E-01    0.91006E-06   -0.36829E-06237382   0.165E-03    0.549E-03
 force on displaced ion       9 direction 2 :  -0.000  -4.706   0.210
 Linear response progress:
  Degree of freedom:  27/ 72
       N       E                     dE             d eps       ncg     rms          rms(c)
RMM:   1    -0.525374807101E-01   -0.52537E-01    0.41841E-02369033   0.214E-01
RMM:   2    -0.500502486892E-01    0.24872E-02   -0.24469E-03239266   0.540E-02    0.179E-01
RMM:   3    -0.501624466032E-01   -0.11220E-03   -0.79336E-04222558   0.246E-02    0.183E-01
RMM:   4    -0.498893331746E-01    0.27311E-03   -0.35486E-04214338   0.154E-02    0.969E-02
RMM:   5    -0.498998846068E-01   -0.10551E-04   -0.14064E-04220698   0.105E-02    0.539E-02
RMM:   6    -0.498399816918E-01    0.59903E-04   -0.77305E-05224894   0.732E-03    0.179E-02
RMM:   7    -0.498371014547E-01    0.28802E-05   -0.81376E-06236120   0.181E-03    0.109E-02
 force on displaced ion       9 direction 3 :  -0.000   0.228 -12.967
 Linear response progress:
  Degree of freedom:  28/ 72
       N       E                     dE             d eps       ncg     rms          rms(c)
RMM:   1    -0.483082995597E-01   -0.48308E-01    0.44208E-02364598   0.204E-01
RMM:   2    -0.463444164891E-01    0.19639E-02   -0.21506E-03237229   0.494E-02    0.126E-01
RMM:   3    -0.464351156091E-01   -0.90699E-04   -0.43990E-04224922   0.189E-02    0.141E-01
RMM:   4    -0.462623502859E-01    0.17277E-03   -0.18462E-04211027   0.115E-02    0.685E-02
RMM:   5    -0.462269572353E-01    0.35393E-04   -0.18174E-05223387   0.477E-03    0.139E-02
RMM:   6    -0.462284202644E-01   -0.14630E-05   -0.82483E-07248443   0.880E-04    0.443E-03
 force on displaced ion      10 direction 1 :  -8.557   0.000  -0.000
 Linear response progress:
  Degree of freedom:  29/ 72
       N       E                     dE             d eps       ncg     rms          rms(c)
RMM:   1    -0.503243452820E-01   -0.50324E-01    0.35558E-02365958   0.203E-01
RMM:   2    -0.490107429524E-01    0.13136E-02   -0.18253E-03237145   0.462E-02    0.986E-02
RMM:   3    -0.490514288659E-01   -0.40686E-04   -0.26878E-04227374   0.150E-02    0.106E-01
RMM:   4    -0.489564343903E-01    0.94994E-04   -0.11817E-04214226   0.923E-03    0.510E-02
RMM:   5    -0.489328717440E-01    0.23563E-04   -0.17804E-05224114   0.448E-03    0.180E-02
RMM:   6    -0.489319590514E-01    0.91269E-06   -0.36924E-06237386   0.165E-03    0.549E-03
 force on displaced ion      10 direction 2 :   0.000  -4.706   0.210
 Linear response progress:
  Degree of freedom:  30/ 72
       N       E                     dE             d eps       ncg     rms          rms(c)
RMM:   1    -0.525374802838E-01   -0.52537E-01    0.41841E-02369027   0.214E-01
RMM:   2    -0.500502284945E-01    0.24873E-02   -0.24469E-03239265   0.540E-02    0.179E-01
RMM:   3    -0.501624365685E-01   -0.11221E-03   -0.79331E-04222542   0.246E-02    0.183E-01
RMM:   4    -0.498893259490E-01    0.27311E-03   -0.35485E-04214338   0.154E-02    0.969E-02
RMM:   5    -0.498998917126E-01   -0.10566E-04   -0.14065E-04220699   0.105E-02    0.539E-02
RMM:   6    -0.498399736485E-01    0.59918E-04   -0.77326E-05224915   0.732E-03    0.179E-02
RMM:   7    -0.498370794713E-01    0.28942E-05   -0.80404E-06236092   0.181E-03    0.109E-02
 force on displaced ion      10 direction 3 :   0.000   0.228 -12.967
 Linear response progress:
  Degree of freedom:  31/ 72
       N       E                     dE             d eps       ncg     rms          rms(c)
RMM:   1    -0.483083110190E-01   -0.48308E-01    0.44208E-02364595   0.204E-01
RMM:   2    -0.463444148679E-01    0.19639E-02   -0.21506E-03237226   0.494E-02    0.126E-01
RMM:   3    -0.464351042088E-01   -0.90689E-04   -0.43991E-04224939   0.189E-02    0.141E-01
RMM:   4    -0.462623478196E-01    0.17276E-03   -0.18462E-04210991   0.115E-02    0.685E-02
RMM:   5    -0.462269469154E-01    0.35401E-04   -0.18175E-05223378   0.477E-03    0.139E-02
RMM:   6    -0.462284143787E-01   -0.14675E-05   -0.81843E-07248463   0.880E-04    0.443E-03
 force on displaced ion      11 direction 1 :  -8.557  -0.000  -0.000
 Linear response progress:
  Degree of freedom:  32/ 72
       N       E                     dE             d eps       ncg     rms          rms(c)
RMM:   1    -0.503243633498E-01   -0.50324E-01    0.35558E-02365963   0.203E-01
RMM:   2    -0.490107462577E-01    0.13136E-02   -0.18254E-03237133   0.462E-02    0.986E-02
RMM:   3    -0.490514318991E-01   -0.40686E-04   -0.26879E-04227375   0.150E-02    0.106E-01
RMM:   4    -0.489564419063E-01    0.94990E-04   -0.11819E-04214301   0.923E-03    0.510E-02
RMM:   5    -0.489328829474E-01    0.23559E-04   -0.17800E-05224105   0.448E-03    0.180E-02
RMM:   6    -0.489319721749E-01    0.91077E-06   -0.36735E-06237361   0.165E-03    0.549E-03
 force on displaced ion      11 direction 2 :   0.000  -4.707   0.210
 Linear response progress:
  Degree of freedom:  33/ 72
       N       E                     dE             d eps       ncg     rms          rms(c)
RMM:   1    -0.525376102126E-01   -0.52538E-01    0.41839E-02369035   0.214E-01
RMM:   2    -0.500502267042E-01    0.24874E-02   -0.24469E-03239276   0.540E-02    0.179E-01
RMM:   3    -0.501624451575E-01   -0.11222E-03   -0.79337E-04222542   0.246E-02    0.183E-01
RMM:   4    -0.498893280262E-01    0.27312E-03   -0.35480E-04214331   0.154E-02    0.969E-02
RMM:   5    -0.498998957901E-01   -0.10568E-04   -0.14063E-04220705   0.105E-02    0.539E-02
RMM:   6    -0.498399690246E-01    0.59927E-04   -0.77281E-05224905   0.732E-03    0.179E-02
RMM:   7    -0.498370904577E-01    0.28786E-05   -0.80729E-06236108   0.182E-03    0.109E-02
 force on displaced ion      11 direction 3 :   0.000   0.228 -12.967
 Linear response progress:
  Degree of freedom:  34/ 72
       N       E                     dE             d eps       ncg     rms          rms(c)
RMM:   1    -0.483083098609E-01   -0.48308E-01    0.44208E-02364599   0.204E-01
RMM:   2    -0.463444135670E-01    0.19639E-02   -0.21506E-03237214   0.494E-02    0.126E-01
RMM:   3    -0.464351176928E-01   -0.90704E-04   -0.43991E-04224945   0.189E-02    0.141E-01
RMM:   4    -0.462623430068E-01    0.17277E-03   -0.18463E-04211061   0.115E-02    0.685E-02
RMM:   5    -0.462269644082E-01    0.35379E-04   -0.18180E-05223384   0.477E-03    0.139E-02
RMM:   6    -0.462284278574E-01   -0.14634E-05   -0.82226E-07248430   0.881E-04    0.443E-03
 force on displaced ion      12 direction 1 :  -8.557  -0.000  -0.000
 Linear response progress:
  Degree of freedom:  35/ 72
       N       E                     dE             d eps       ncg     rms          rms(c)
RMM:   1    -0.503243589161E-01   -0.50324E-01    0.35558E-02365958   0.203E-01
RMM:   2    -0.490107441627E-01    0.13136E-02   -0.18254E-03237134   0.462E-02    0.986E-02
RMM:   3    -0.490514178743E-01   -0.40674E-04   -0.26879E-04227358   0.150E-02    0.106E-01
RMM:   4    -0.489564369620E-01    0.94981E-04   -0.11815E-04214317   0.923E-03    0.510E-02
RMM:   5    -0.489328690295E-01    0.23568E-04   -0.17796E-05224093   0.448E-03    0.180E-02
RMM:   6    -0.489319583619E-01    0.91067E-06   -0.36800E-06237382   0.165E-03    0.549E-03
 force on displaced ion      12 direction 2 :  -0.000  -4.707   0.210
 Linear response progress:
  Degree of freedom:  36/ 72
       N       E                     dE             d eps       ncg     rms          rms(c)
RMM:   1    -0.525376073378E-01   -0.52538E-01    0.41839E-02369027   0.214E-01
RMM:   2    -0.500502361130E-01    0.24874E-02   -0.24469E-03239271   0.540E-02    0.179E-01
RMM:   3    -0.501624370880E-01   -0.11220E-03   -0.79329E-04222550   0.246E-02    0.183E-01
RMM:   4    -0.498893260180E-01    0.27311E-03   -0.35485E-04214330   0.154E-02    0.969E-02
RMM:   5    -0.498998808320E-01   -0.10555E-04   -0.14062E-04220712   0.105E-02    0.539E-02
RMM:   6    -0.498399696128E-01    0.59911E-04   -0.77295E-05224913   0.732E-03    0.179E-02
RMM:   7    -0.498370938822E-01    0.28757E-05   -0.80809E-06236132   0.182E-03    0.109E-02
 force on displaced ion      12 direction 3 :  -0.000   0.228 -12.967
 Linear response progress:
  Degree of freedom:  37/ 72
       N       E                     dE             d eps       ncg     rms          rms(c)
RMM:   1    -0.479570241397E-01   -0.47957E-01    0.35685E-02359987   0.197E-01
RMM:   2    -0.457960771086E-01    0.21609E-02   -0.22082E-03238537   0.473E-02    0.104E-01
RMM:   3    -0.458309806880E-01   -0.34904E-04   -0.27817E-04226065   0.154E-02    0.109E-01
RMM:   4    -0.457316007634E-01    0.99380E-04   -0.13356E-04213491   0.974E-03    0.540E-02
RMM:   5    -0.456946574736E-01    0.36943E-04   -0.21140E-05223315   0.490E-03    0.113E-02
RMM:   6    -0.456979306202E-01   -0.32731E-05   -0.10459E-06251194   0.805E-04    0.413E-03
 force on displaced ion      13 direction 1 :  -6.202  -0.000   0.000
 Linear response progress:
  Degree of freedom:  38/ 72
       N       E                     dE             d eps       ncg     rms          rms(c)
RMM:   1    -0.511029232444E-01   -0.51103E-01    0.41965E-02370444   0.208E-01
RMM:   2    -0.488948837735E-01    0.22080E-02   -0.24191E-03239572   0.511E-02    0.122E-01
RMM:   3    -0.489382416242E-01   -0.43358E-04   -0.37465E-04229546   0.176E-02    0.125E-01
RMM:   4    -0.488168634676E-01    0.12138E-03   -0.17100E-04216548   0.109E-02    0.651E-02
RMM:   5    -0.487809210407E-01    0.35942E-04   -0.37660E-05223244   0.606E-03    0.213E-02
RMM:   6    -0.487733310038E-01    0.75900E-05   -0.14945E-05228651   0.316E-03    0.101E-02
 force on displaced ion      13 direction 2 :   0.000  -8.080  -0.693
 Linear response progress:
  Degree of freedom:  39/ 72
       N       E                     dE             d eps       ncg     rms          rms(c)
RMM:   1    -0.514761554533E-01   -0.51476E-01    0.30025E-02366437   0.201E-01
RMM:   2    -0.494096488013E-01    0.20665E-02   -0.21816E-03239898   0.478E-02    0.107E-01
RMM:   3    -0.494855396789E-01   -0.75891E-04   -0.31948E-04226481   0.165E-02    0.113E-01
RMM:   4    -0.493972785341E-01    0.88261E-04   -0.13437E-04219896   0.982E-03    0.597E-02
RMM:   5    -0.494115461538E-01   -0.14268E-04   -0.54276E-05222229   0.685E-03    0.310E-02
RMM:   6    -0.493931241429E-01    0.18422E-04   -0.24978E-05225713   0.435E-03    0.129E-02
RMM:   7    -0.493883689874E-01    0.47552E-05   -0.18041E-06238625   0.120E-03    0.808E-03
 force on displaced ion      13 direction 3 :   0.000  -0.717  -6.740
 Linear response progress:
  Degree of freedom:  40/ 72
       N       E                     dE             d eps       ncg     rms          rms(c)
RMM:   1    -0.479570806809E-01   -0.47957E-01    0.35684E-02359992   0.197E-01
RMM:   2    -0.457960723564E-01    0.21610E-02   -0.22082E-03238543   0.473E-02    0.104E-01
RMM:   3    -0.458309768661E-01   -0.34905E-04   -0.27818E-04226061   0.154E-02    0.109E-01
RMM:   4    -0.457316038438E-01    0.99373E-04   -0.13356E-04213484   0.974E-03    0.540E-02
RMM:   5    -0.456946473914E-01    0.36956E-04   -0.21139E-05223317   0.490E-03    0.112E-02
RMM:   6    -0.456979286037E-01   -0.32812E-05   -0.10563E-06251248   0.801E-04    0.413E-03
 force on displaced ion      14 direction 1 :  -6.202  -0.000   0.000
 Linear response progress:
  Degree of freedom:  41/ 72
       N       E                     dE             d eps       ncg     rms          rms(c)
RMM:   1    -0.511029153655E-01   -0.51103E-01    0.41965E-02370442   0.208E-01
RMM:   2    -0.488948725074E-01    0.22080E-02   -0.24190E-03239557   0.511E-02    0.122E-01
RMM:   3    -0.489382361739E-01   -0.43364E-04   -0.37466E-04229538   0.176E-02    0.125E-01
RMM:   4    -0.488168542492E-01    0.12138E-03   -0.17098E-04216551   0.109E-02    0.651E-02
RMM:   5    -0.487809245733E-01    0.35930E-04   -0.37654E-05223260   0.606E-03    0.213E-02
RMM:   6    -0.487733190159E-01    0.76056E-05   -0.14927E-05228655   0.316E-03    0.101E-02
 force on displaced ion      14 direction 2 :  -0.000  -8.080  -0.693
 Linear response progress:
  Degree of freedom:  42/ 72
       N       E                     dE             d eps       ncg     rms          rms(c)
RMM:   1    -0.514761505457E-01   -0.51476E-01    0.30025E-02366433   0.201E-01
RMM:   2    -0.494096464929E-01    0.20665E-02   -0.21816E-03239901   0.478E-02    0.107E-01
RMM:   3    -0.494855326887E-01   -0.75886E-04   -0.31950E-04226498   0.165E-02    0.113E-01
RMM:   4    -0.493972717403E-01    0.88261E-04   -0.13434E-04219897   0.982E-03    0.597E-02
RMM:   5    -0.494115345989E-01   -0.14263E-04   -0.54278E-05222242   0.685E-03    0.310E-02
RMM:   6    -0.493931170195E-01    0.18418E-04   -0.24989E-05225718   0.435E-03    0.129E-02
RMM:   7    -0.493883615311E-01    0.47555E-05   -0.17846E-06238636   0.121E-03    0.808E-03
 force on displaced ion      14 direction 3 :   0.000  -0.717  -6.740
 Linear response progress:
  Degree of freedom:  43/ 72
       N       E                     dE             d eps       ncg     rms          rms(c)
RMM:   1    -0.479571272184E-01   -0.47957E-01    0.35683E-02360003   0.197E-01
RMM:   2    -0.457960727096E-01    0.21611E-02   -0.22081E-03238561   0.473E-02    0.104E-01
RMM:   3    -0.458309685009E-01   -0.34896E-04   -0.27819E-04226063   0.154E-02    0.109E-01
RMM:   4    -0.457315940288E-01    0.99374E-04   -0.13355E-04213488   0.974E-03    0.540E-02
RMM:   5    -0.456946368990E-01    0.36957E-04   -0.21134E-05223317   0.490E-03    0.112E-02
RMM:   6    -0.456979321343E-01   -0.32952E-05   -0.10308E-06251213   0.801E-04    0.413E-03
 force on displaced ion      15 direction 1 :  -6.202   0.000   0.000
 Linear response progress:
  Degree of freedom:  44/ 72
       N       E                     dE             d eps       ncg     rms          rms(c)
RMM:   1    -0.511029238779E-01   -0.51103E-01    0.41965E-02370448   0.208E-01
RMM:   2    -0.488948645020E-01    0.22081E-02   -0.24191E-03239587   0.511E-02    0.122E-01
RMM:   3    -0.489382404789E-01   -0.43376E-04   -0.37466E-04229542   0.176E-02    0.125E-01
RMM:   4    -0.488168599464E-01    0.12138E-03   -0.17099E-04216553   0.109E-02    0.651E-02
RMM:   5    -0.487809184705E-01    0.35941E-04   -0.37669E-05223247   0.606E-03    0.213E-02
RMM:   6    -0.487733216204E-01    0.75969E-05   -0.14968E-05228657   0.316E-03    0.101E-02
 force on displaced ion      15 direction 2 :  -0.000  -8.080  -0.693
 Linear response progress:
  Degree of freedom:  45/ 72
       N       E                     dE             d eps       ncg     rms          rms(c)
RMM:   1    -0.514760950625E-01   -0.51476E-01    0.30026E-02366438   0.201E-01
RMM:   2    -0.494096380924E-01    0.20665E-02   -0.21817E-03239916   0.478E-02    0.107E-01
RMM:   3    -0.494855351691E-01   -0.75897E-04   -0.31951E-04226464   0.165E-02    0.113E-01
RMM:   4    -0.493972743077E-01    0.88261E-04   -0.13439E-04219892   0.982E-03    0.597E-02
RMM:   5    -0.494115363882E-01   -0.14262E-04   -0.54249E-05222236   0.685E-03    0.310E-02
RMM:   6    -0.493931225895E-01    0.18414E-04   -0.25029E-05225715   0.435E-03    0.129E-02
RMM:   7    -0.493883612292E-01    0.47614E-05   -0.17987E-06238635   0.120E-03    0.808E-03
 force on displaced ion      15 direction 3 :   0.000  -0.717  -6.740
 Linear response progress:
  Degree of freedom:  46/ 72
       N       E                     dE             d eps       ncg     rms          rms(c)
RMM:   1    -0.479570678642E-01   -0.47957E-01    0.35684E-02359999   0.197E-01
RMM:   2    -0.457960728641E-01    0.21610E-02   -0.22082E-03238553   0.473E-02    0.104E-01
RMM:   3    -0.458309644888E-01   -0.34892E-04   -0.27818E-04226061   0.154E-02    0.109E-01
RMM:   4    -0.457315945162E-01    0.99370E-04   -0.13357E-04213471   0.974E-03    0.540E-02
RMM:   5    -0.456946498834E-01    0.36945E-04   -0.21146E-05223326   0.490E-03    0.112E-02
RMM:   6    -0.456979308085E-01   -0.32809E-05   -0.10450E-06251239   0.801E-04    0.413E-03
 force on displaced ion      16 direction 1 :  -6.202   0.000   0.000
 Linear response progress:
  Degree of freedom:  47/ 72
       N       E                     dE             d eps       ncg     rms          rms(c)
RMM:   1    -0.511029280385E-01   -0.51103E-01    0.41965E-02370447   0.208E-01
RMM:   2    -0.488948817631E-01    0.22080E-02   -0.24189E-03239567   0.511E-02    0.122E-01
RMM:   3    -0.489382252641E-01   -0.43344E-04   -0.37465E-04229532   0.176E-02    0.125E-01
RMM:   4    -0.488168508374E-01    0.12137E-03   -0.17098E-04216535   0.109E-02    0.651E-02
RMM:   5    -0.487809148246E-01    0.35936E-04   -0.37658E-05223251   0.606E-03    0.213E-02
RMM:   6    -0.487733148104E-01    0.76000E-05   -0.14941E-05228638   0.316E-03    0.101E-02
 force on displaced ion      16 direction 2 :  -0.000  -8.080  -0.693
 Linear response progress:
  Degree of freedom:  48/ 72
       N       E                     dE             d eps       ncg     rms          rms(c)
RMM:   1    -0.514760937532E-01   -0.51476E-01    0.30026E-02366447   0.201E-01
RMM:   2    -0.494096418132E-01    0.20665E-02   -0.21816E-03239913   0.478E-02    0.107E-01
RMM:   3    -0.494855292757E-01   -0.75887E-04   -0.31950E-04226479   0.165E-02    0.113E-01
RMM:   4    -0.493972731461E-01    0.88256E-04   -0.13443E-04219900   0.982E-03    0.597E-02
RMM:   5    -0.494115369417E-01   -0.14264E-04   -0.54278E-05222241   0.685E-03    0.310E-02
RMM:   6    -0.493931078526E-01    0.18429E-04   -0.25025E-05225697   0.435E-03    0.129E-02
RMM:   7    -0.493883638134E-01    0.47440E-05   -0.18032E-06238617   0.120E-03    0.808E-03
 force on displaced ion      16 direction 3 :  -0.000  -0.717  -6.740
 Linear response progress:
  Degree of freedom:  49/ 72
       N       E                     dE             d eps       ncg     rms          rms(c)
RMM:   1    -0.133925356540E+00   -0.13393E+00   -0.10207E-01233826   0.334E-01
RMM:   2    -0.129362225699E+00    0.45631E-02   -0.30880E-03219495   0.576E-02    0.164E-01
RMM:   3    -0.129225670551E+00    0.13656E-03   -0.42909E-04226578   0.185E-02    0.119E-01
RMM:   4    -0.129215695481E+00    0.99751E-05   -0.45865E-04213420   0.182E-02    0.951E-02
RMM:   5    -0.129041513647E+00    0.17418E-03   -0.21227E-04219478   0.134E-02    0.253E-02
RMM:   6    -0.129037486465E+00    0.40272E-05   -0.41423E-06233085   0.234E-03    0.902E-03
 force on displaced ion      17 direction 1 : -10.312   0.000   0.000
 Linear response progress:
  Degree of freedom:  50/ 72
       N       E                     dE             d eps       ncg     rms          rms(c)
RMM:   1    -0.139608678808E+00   -0.13961E+00   -0.11036E-01230846   0.345E-01
RMM:   2    -0.133463171505E+00    0.61455E-02   -0.35041E-03219074   0.605E-02    0.182E-01
RMM:   3    -0.133253066909E+00    0.21010E-03   -0.54504E-04224203   0.213E-02    0.139E-01
RMM:   4    -0.133180154831E+00    0.72912E-04   -0.53491E-04213146   0.197E-02    0.102E-01
RMM:   5    -0.132999304129E+00    0.18085E-03   -0.25456E-04219744   0.153E-02    0.323E-02
RMM:   6    -0.132985192422E+00    0.14112E-04   -0.20698E-05229672   0.414E-03    0.130E-02
RMM:   7    -0.132982450755E+00    0.27417E-05   -0.47133E-06235028   0.185E-03    0.791E-03
 force on displaced ion      17 direction 2 :   0.000 -14.677   1.929
 Linear response progress:
  Degree of freedom:  51/ 72
       N       E                     dE             d eps       ncg     rms          rms(c)
RMM:   1    -0.141487024425E+00   -0.14149E+00   -0.11312E-01235272   0.348E-01
RMM:   2    -0.134872905248E+00    0.66141E-02   -0.37096E-03219339   0.611E-02    0.181E-01
RMM:   3    -0.134494337625E+00    0.37857E-03   -0.30584E-04228524   0.178E-02    0.105E-01
RMM:   4    -0.134414993966E+00    0.79344E-04   -0.22491E-04225031   0.145E-02    0.734E-02
RMM:   5    -0.134349883452E+00    0.65111E-04   -0.16619E-04220961   0.113E-02    0.357E-02
RMM:   6    -0.134323019023E+00    0.26864E-04   -0.25284E-05227397   0.455E-03    0.103E-02
RMM:   7    -0.134318959281E+00    0.40597E-05   -0.33944E-06239257   0.170E-03    0.830E-03
 force on displaced ion      17 direction 3 :  -0.000   1.946 -19.713
 Linear response progress:
  Degree of freedom:  52/ 72
       N       E                     dE             d eps       ncg     rms          rms(c)
RMM:   1    -0.133925507427E+00   -0.13393E+00   -0.10207E-01233833   0.334E-01
RMM:   2    -0.129362372622E+00    0.45631E-02   -0.30880E-03219494   0.576E-02    0.164E-01
RMM:   3    -0.129225804784E+00    0.13657E-03   -0.42910E-04226586   0.185E-02    0.119E-01
RMM:   4    -0.129215831560E+00    0.99732E-05   -0.45864E-04213432   0.182E-02    0.951E-02
RMM:   5    -0.129041666248E+00    0.17417E-03   -0.21228E-04219477   0.134E-02    0.253E-02
RMM:   6    -0.129037623875E+00    0.40424E-05   -0.41408E-06233068   0.234E-03    0.902E-03
 force on displaced ion      18 direction 1 : -10.312   0.000   0.000
 Linear response progress:
  Degree of freedom:  53/ 72
       N       E                     dE             d eps       ncg     rms          rms(c)
RMM:   1    -0.139608822848E+00   -0.13961E+00   -0.11036E-01230846   0.345E-01
RMM:   2    -0.133463318034E+00    0.61455E-02   -0.35041E-03219072   0.605E-02    0.182E-01
RMM:   3    -0.133253218278E+00    0.21010E-03   -0.54505E-04224211   0.213E-02    0.139E-01
RMM:   4    -0.133180308544E+00    0.72910E-04   -0.53490E-04213133   0.197E-02    0.102E-01
RMM:   5    -0.132999458605E+00    0.18085E-03   -0.25458E-04219737   0.153E-02    0.323E-02
RMM:   6    -0.132985347015E+00    0.14112E-04   -0.20693E-05229678   0.414E-03    0.130E-02
RMM:   7    -0.132982611752E+00    0.27353E-05   -0.47082E-06235027   0.185E-03    0.792E-03
 force on displaced ion      18 direction 2 :   0.000 -14.677   1.930
 Linear response progress:
  Degree of freedom:  54/ 72
       N       E                     dE             d eps       ncg     rms          rms(c)
RMM:   1    -0.141487173154E+00   -0.14149E+00   -0.11312E-01235274   0.348E-01
RMM:   2    -0.134873050354E+00    0.66141E-02   -0.37096E-03219342   0.611E-02    0.181E-01
RMM:   3    -0.134494469527E+00    0.37858E-03   -0.30585E-04228530   0.178E-02    0.105E-01
RMM:   4    -0.134415140723E+00    0.79329E-04   -0.22491E-04225036   0.145E-02    0.734E-02
RMM:   5    -0.134350035506E+00    0.65105E-04   -0.16619E-04220954   0.113E-02    0.357E-02
RMM:   6    -0.134323156409E+00    0.26879E-04   -0.25282E-05227404   0.455E-03    0.103E-02
RMM:   7    -0.134319107783E+00    0.40486E-05   -0.33876E-06239291   0.170E-03    0.830E-03
 force on displaced ion      18 direction 3 :  -0.000   1.946 -19.712
 Linear response progress:
  Degree of freedom:  55/ 72
       N       E                     dE             d eps       ncg     rms          rms(c)
RMM:   1    -0.133925639870E+00   -0.13393E+00   -0.10207E-01233827   0.334E-01
RMM:   2    -0.129362500447E+00    0.45631E-02   -0.30881E-03219494   0.576E-02    0.164E-01
RMM:   3    -0.129225937286E+00    0.13656E-03   -0.42911E-04226586   0.185E-02    0.119E-01
RMM:   4    -0.129215964275E+00    0.99730E-05   -0.45867E-04213440   0.182E-02    0.951E-02
RMM:   5    -0.129041792118E+00    0.17417E-03   -0.21228E-04219483   0.134E-02    0.253E-02
RMM:   6    -0.129037736249E+00    0.40559E-05   -0.41422E-06233084   0.234E-03    0.902E-03
 force on displaced ion      19 direction 1 : -10.312   0.000   0.000
 Linear response progress:
  Degree of freedom:  56/ 72
       N       E                     dE             d eps       ncg     rms          rms(c)
RMM:   1    -0.139608954393E+00   -0.13961E+00   -0.11036E-01230846   0.345E-01
RMM:   2    -0.133463454889E+00    0.61455E-02   -0.35041E-03219071   0.605E-02    0.182E-01
RMM:   3    -0.133253352681E+00    0.21010E-03   -0.54508E-04224212   0.213E-02    0.139E-01
RMM:   4    -0.133180437457E+00    0.72915E-04   -0.53491E-04213143   0.197E-02    0.102E-01
RMM:   5    -0.132999586677E+00    0.18085E-03   -0.25457E-04219744   0.153E-02    0.323E-02
RMM:   6    -0.132985478242E+00    0.14108E-04   -0.20698E-05229705   0.414E-03    0.130E-02
RMM:   7    -0.132982743552E+00    0.27347E-05   -0.47123E-06235024   0.185E-03    0.791E-03
 force on displaced ion      19 direction 2 :  -0.000 -14.677   1.930
 Linear response progress:
  Degree of freedom:  57/ 72
       N       E                     dE             d eps       ncg     rms          rms(c)
RMM:   1    -0.141487311755E+00   -0.14149E+00   -0.11312E-01235275   0.348E-01
RMM:   2    -0.134873183041E+00    0.66141E-02   -0.37097E-03219347   0.611E-02    0.181E-01
RMM:   3    -0.134494605098E+00    0.37858E-03   -0.30586E-04228521   0.178E-02    0.105E-01
RMM:   4    -0.134415262939E+00    0.79342E-04   -0.22491E-04225033   0.145E-02    0.734E-02
RMM:   5    -0.134350156828E+00    0.65106E-04   -0.16619E-04220958   0.113E-02    0.357E-02
RMM:   6    -0.134323299631E+00    0.26857E-04   -0.25281E-05227433   0.455E-03    0.103E-02
RMM:   7    -0.134319231465E+00    0.40682E-05   -0.33921E-06239253   0.170E-03    0.830E-03
 force on displaced ion      19 direction 3 :  -0.000   1.946 -19.713
 Linear response progress:
  Degree of freedom:  58/ 72
       N       E                     dE             d eps       ncg     rms          rms(c)
RMM:   1    -0.133925491382E+00   -0.13393E+00   -0.10207E-01233830   0.334E-01
RMM:   2    -0.129362357257E+00    0.45631E-02   -0.30881E-03219492   0.576E-02    0.164E-01
RMM:   3    -0.129225796319E+00    0.13656E-03   -0.42911E-04226592   0.185E-02    0.119E-01
RMM:   4    -0.129215823247E+00    0.99731E-05   -0.45867E-04213453   0.182E-02    0.951E-02
RMM:   5    -0.129041646049E+00    0.17418E-03   -0.21228E-04219481   0.134E-02    0.253E-02
RMM:   6    -0.129037602979E+00    0.40431E-05   -0.41415E-06233085   0.234E-03    0.902E-03
 force on displaced ion      20 direction 1 : -10.312   0.000   0.000
 Linear response progress:
  Degree of freedom:  59/ 72
       N       E                     dE             d eps       ncg     rms          rms(c)
RMM:   1    -0.139608812578E+00   -0.13961E+00   -0.11036E-01230848   0.345E-01
RMM:   2    -0.133463310578E+00    0.61455E-02   -0.35042E-03219075   0.605E-02    0.182E-01
RMM:   3    -0.133253209286E+00    0.21010E-03   -0.54506E-04224214   0.213E-02    0.139E-01
RMM:   4    -0.133180289209E+00    0.72920E-04   -0.53494E-04213139   0.197E-02    0.102E-01
RMM:   5    -0.132999436345E+00    0.18085E-03   -0.25455E-04219752   0.153E-02    0.323E-02
RMM:   6    -0.132985327839E+00    0.14109E-04   -0.20700E-05229708   0.414E-03    0.130E-02
RMM:   7    -0.132982609223E+00    0.27186E-05   -0.47189E-06235031   0.185E-03    0.791E-03
 force on displaced ion      20 direction 2 :   0.000 -14.677   1.930
 Linear response progress:
  Degree of freedom:  60/ 72
       N       E                     dE             d eps       ncg     rms          rms(c)
RMM:   1    -0.141487163358E+00   -0.14149E+00   -0.11312E-01235275   0.348E-01
RMM:   2    -0.134873038533E+00    0.66141E-02   -0.37096E-03219344   0.611E-02    0.181E-01
RMM:   3    -0.134494464934E+00    0.37857E-03   -0.30586E-04228528   0.178E-02    0.105E-01
RMM:   4    -0.134415121915E+00    0.79343E-04   -0.22491E-04225040   0.145E-02    0.734E-02
RMM:   5    -0.134350006673E+00    0.65115E-04   -0.16619E-04220954   0.113E-02    0.357E-02
RMM:   6    -0.134323156939E+00    0.26850E-04   -0.25282E-05227454   0.455E-03    0.103E-02
RMM:   7    -0.134319097035E+00    0.40599E-05   -0.33915E-06239253   0.170E-03    0.830E-03
 force on displaced ion      20 direction 3 :   0.000   1.946 -19.713
 Linear response progress:
  Degree of freedom:  61/ 72
       N       E                     dE             d eps       ncg     rms          rms(c)
RMM:   1    -0.133925967067E+00   -0.13393E+00   -0.10207E-01233837   0.334E-01
RMM:   2    -0.129364485218E+00    0.45615E-02   -0.30880E-03219489   0.576E-02    0.164E-01
RMM:   3    -0.129227631820E+00    0.13685E-03   -0.42911E-04226572   0.185E-02    0.119E-01
RMM:   4    -0.129217887850E+00    0.97440E-05   -0.45868E-04213406   0.182E-02    0.951E-02
RMM:   5    -0.129043522168E+00    0.17437E-03   -0.21228E-04219485   0.134E-02    0.253E-02
RMM:   6    -0.129039503754E+00    0.40184E-05   -0.41429E-06233199   0.234E-03    0.902E-03
 force on displaced ion      21 direction 1 : -10.312  -0.000  -0.000
 Linear response progress:
  Degree of freedom:  62/ 72
       N       E                     dE             d eps       ncg     rms          rms(c)
RMM:   1    -0.139602967383E+00   -0.13960E+00   -0.11036E-01230842   0.345E-01
RMM:   2    -0.133429205390E+00    0.61738E-02   -0.35059E-03219077   0.605E-02    0.182E-01
RMM:   3    -0.133229304019E+00    0.19990E-03   -0.54506E-04224199   0.213E-02    0.139E-01
RMM:   4    -0.133154748482E+00    0.74556E-04   -0.53480E-04213118   0.197E-02    0.102E-01
RMM:   5    -0.132974490929E+00    0.18026E-03   -0.25421E-04219725   0.153E-02    0.323E-02
RMM:   6    -0.132963385915E+00    0.11105E-04   -0.20807E-05229477   0.414E-03    0.130E-02
RMM:   7    -0.132957449666E+00    0.59362E-05   -0.48160E-06235001   0.185E-03    0.792E-03
 force on displaced ion      21 direction 2 :  -0.000 -14.676   1.928
 Linear response progress:
  Degree of freedom:  63/ 72
       N       E                     dE             d eps       ncg     rms          rms(c)
RMM:   1    -0.141485827908E+00   -0.14149E+00   -0.11312E-01235271   0.348E-01
RMM:   2    -0.134836624782E+00    0.66492E-02   -0.37202E-03219323   0.611E-02    0.181E-01
RMM:   3    -0.134472323345E+00    0.36430E-03   -0.30590E-04228523   0.178E-02    0.105E-01
RMM:   4    -0.134403341474E+00    0.68982E-04   -0.22490E-04224985   0.145E-02    0.734E-02
RMM:   5    -0.134330399324E+00    0.72942E-04   -0.16627E-04220962   0.113E-02    0.357E-02
RMM:   6    -0.134305614992E+00    0.24784E-04   -0.25499E-05227543   0.455E-03    0.103E-02
RMM:   7    -0.134302007181E+00    0.36078E-05   -0.39315E-06239223   0.169E-03    0.830E-03
 force on displaced ion      21 direction 3 :   0.000   1.945 -19.712
 Linear response progress:
  Degree of freedom:  64/ 72
       N       E                     dE             d eps       ncg     rms          rms(c)
RMM:   1    -0.133925670497E+00   -0.13393E+00   -0.10207E-01233831   0.334E-01
RMM:   2    -0.129364196665E+00    0.45615E-02   -0.30880E-03219479   0.576E-02    0.164E-01
RMM:   3    -0.129227342377E+00    0.13685E-03   -0.42910E-04226576   0.185E-02    0.119E-01
RMM:   4    -0.129217615506E+00    0.97269E-05   -0.45868E-04213405   0.182E-02    0.951E-02
RMM:   5    -0.129043234628E+00    0.17438E-03   -0.21228E-04219478   0.134E-02    0.253E-02
RMM:   6    -0.129039220462E+00    0.40142E-05   -0.41413E-06233191   0.234E-03    0.902E-03
 force on displaced ion      22 direction 1 : -10.312  -0.000  -0.000
 Linear response progress:
  Degree of freedom:  65/ 72
       N       E                     dE             d eps       ncg     rms          rms(c)
RMM:   1    -0.139602677516E+00   -0.13960E+00   -0.11036E-01230843   0.345E-01
RMM:   2    -0.133428923874E+00    0.61738E-02   -0.35059E-03219073   0.605E-02    0.182E-01
RMM:   3    -0.133229016322E+00    0.19991E-03   -0.54504E-04224206   0.213E-02    0.139E-01
RMM:   4    -0.133154470349E+00    0.74546E-04   -0.53480E-04213114   0.197E-02    0.102E-01
RMM:   5    -0.132974214750E+00    0.18026E-03   -0.25422E-04219724   0.153E-02    0.323E-02
RMM:   6    -0.132963122481E+00    0.11092E-04   -0.20796E-05229479   0.414E-03    0.130E-02
RMM:   7    -0.132957167339E+00    0.59551E-05   -0.48166E-06235008   0.185E-03    0.791E-03
 force on displaced ion      22 direction 2 :   0.000 -14.676   1.928
 Linear response progress:
  Degree of freedom:  66/ 72
       N       E                     dE             d eps       ncg     rms          rms(c)
RMM:   1    -0.141485524414E+00   -0.14149E+00   -0.11312E-01235271   0.348E-01
RMM:   2    -0.134836332153E+00    0.66492E-02   -0.37201E-03219324   0.611E-02    0.181E-01
RMM:   3    -0.134472039180E+00    0.36429E-03   -0.30589E-04228510   0.178E-02    0.105E-01
RMM:   4    -0.134403058634E+00    0.68981E-04   -0.22490E-04225004   0.145E-02    0.734E-02
RMM:   5    -0.134330109561E+00    0.72949E-04   -0.16628E-04220973   0.113E-02    0.357E-02
RMM:   6    -0.134305323449E+00    0.24786E-04   -0.25498E-05227556   0.455E-03    0.103E-02
RMM:   7    -0.134301730845E+00    0.35926E-05   -0.39310E-06239197   0.170E-03    0.830E-03
 force on displaced ion      22 direction 3 :   0.000   1.945 -19.712
 Linear response progress:
  Degree of freedom:  67/ 72
       N       E                     dE             d eps       ncg     rms          rms(c)
RMM:   1    -0.133925381933E+00   -0.13393E+00   -0.10207E-01233830   0.334E-01
RMM:   2    -0.129363905189E+00    0.45615E-02   -0.30880E-03219483   0.576E-02    0.164E-01
RMM:   3    -0.129227044330E+00    0.13686E-03   -0.42911E-04226591   0.185E-02    0.119E-01
RMM:   4    -0.129217317528E+00    0.97268E-05   -0.45869E-04213420   0.182E-02    0.951E-02
RMM:   5    -0.129042938845E+00    0.17438E-03   -0.21228E-04219475   0.134E-02    0.253E-02
RMM:   6    -0.129038921325E+00    0.40175E-05   -0.41449E-06233211   0.234E-03    0.902E-03
 force on displaced ion      23 direction 1 : -10.312  -0.000  -0.000
 Linear response progress:
  Degree of freedom:  68/ 72
       N       E                     dE             d eps       ncg     rms          rms(c)
RMM:   1    -0.139602354648E+00   -0.13960E+00   -0.11036E-01230844   0.345E-01
RMM:   2    -0.133428619943E+00    0.61737E-02   -0.35059E-03219078   0.605E-02    0.182E-01
RMM:   3    -0.133228711729E+00    0.19991E-03   -0.54504E-04224209   0.213E-02    0.139E-01
RMM:   4    -0.133154167253E+00    0.74544E-04   -0.53481E-04213117   0.197E-02    0.102E-01
RMM:   5    -0.132973891484E+00    0.18028E-03   -0.25423E-04219721   0.153E-02    0.323E-02
RMM:   6    -0.132962812764E+00    0.11079E-04   -0.20796E-05229493   0.414E-03    0.130E-02
RMM:   7    -0.132956857624E+00    0.59551E-05   -0.48072E-06235016   0.185E-03    0.791E-03
 force on displaced ion      23 direction 2 :   0.000 -14.677   1.928
 Linear response progress:
  Degree of freedom:  69/ 72
       N       E                     dE             d eps       ncg     rms          rms(c)
RMM:   1    -0.141485242060E+00   -0.14149E+00   -0.11312E-01235270   0.348E-01
RMM:   2    -0.134836051488E+00    0.66492E-02   -0.37202E-03219317   0.611E-02    0.181E-01
RMM:   3    -0.134471756415E+00    0.36430E-03   -0.30590E-04228509   0.178E-02    0.105E-01
RMM:   4    -0.134402791513E+00    0.68965E-04   -0.22490E-04224996   0.145E-02    0.734E-02
RMM:   5    -0.134329834066E+00    0.72957E-04   -0.16628E-04220980   0.113E-02    0.357E-02
RMM:   6    -0.134305041712E+00    0.24792E-04   -0.25498E-05227554   0.455E-03    0.103E-02
RMM:   7    -0.134301449006E+00    0.35927E-05   -0.39325E-06239258   0.170E-03    0.830E-03
 force on displaced ion      23 direction 3 :  -0.000   1.945 -19.712
 Linear response progress:
  Degree of freedom:  70/ 72
       N       E                     dE             d eps       ncg     rms          rms(c)
RMM:   1    -0.133925643866E+00   -0.13393E+00   -0.10207E-01233831   0.334E-01
RMM:   2    -0.129364164652E+00    0.45615E-02   -0.30880E-03219483   0.576E-02    0.164E-01
RMM:   3    -0.129227312043E+00    0.13685E-03   -0.42911E-04226583   0.185E-02    0.119E-01
RMM:   4    -0.129217569644E+00    0.97424E-05   -0.45868E-04213419   0.182E-02    0.951E-02
RMM:   5    -0.129043206160E+00    0.17436E-03   -0.21228E-04219471   0.134E-02    0.253E-02
RMM:   6    -0.129039188599E+00    0.40176E-05   -0.41421E-06233211   0.234E-03    0.902E-03
 force on displaced ion      24 direction 1 : -10.312  -0.000  -0.000
 Linear response progress:
  Degree of freedom:  71/ 72
       N       E                     dE             d eps       ncg     rms          rms(c)
RMM:   1    -0.139602608750E+00   -0.13960E+00   -0.11036E-01230841   0.345E-01
RMM:   2    -0.133428874230E+00    0.61737E-02   -0.35058E-03219061   0.605E-02    0.182E-01
RMM:   3    -0.133228956892E+00    0.19992E-03   -0.54504E-04224212   0.213E-02    0.139E-01
RMM:   4    -0.133154423711E+00    0.74533E-04   -0.53480E-04213116   0.197E-02    0.102E-01
RMM:   5    -0.132974163063E+00    0.18026E-03   -0.25423E-04219721   0.153E-02    0.323E-02
RMM:   6    -0.132963060679E+00    0.11102E-04   -0.20799E-05229479   0.414E-03    0.130E-02
RMM:   7    -0.132957106078E+00    0.59546E-05   -0.48106E-06235010   0.184E-03    0.791E-03
 force on displaced ion      24 direction 2 :   0.000 -14.677   1.928
 Linear response progress:
  Degree of freedom:  72/ 72
       N       E                     dE             d eps       ncg     rms          rms(c)
RMM:   1    -0.141485500397E+00   -0.14149E+00   -0.11312E-01235271   0.348E-01
RMM:   2    -0.134836314461E+00    0.66492E-02   -0.37201E-03219318   0.611E-02    0.181E-01
RMM:   3    -0.134472023449E+00    0.36429E-03   -0.30590E-04228515   0.178E-02    0.105E-01
RMM:   4    -0.134403040683E+00    0.68983E-04   -0.22490E-04225001   0.145E-02    0.734E-02
RMM:   5    -0.134330090060E+00    0.72951E-04   -0.16628E-04220975   0.113E-02    0.357E-02
RMM:   6    -0.134305304599E+00    0.24785E-04   -0.25498E-05227601   0.455E-03    0.103E-02
RMM:   7    -0.134301705356E+00    0.35992E-05   -0.39295E-06239219   0.170E-03    0.830E-03
 force on displaced ion      24 direction 3 :   0.000   1.945 -19.712
 Linear response finished
