   6   6   0   0
  0.5861956E+02  0.3452000E-09  0.6368000E-09  0.1600000E-08  0.5000000E-15
  1.000000000000000E-004
  CAR 
 2D MoTe2 in a box                       
      4.32329501    -13.25983900  301      0.41868355      1.00000000
    -13.260  0.0000E+00  0.0000E+00
    -13.201  0.0000E+00  0.0000E+00
    -13.143  0.0000E+00  0.0000E+00
    -13.084  0.0000E+00  0.0000E+00
    -13.025  0.0000E+00  0.0000E+00
    -12.967  0.0000E+00  0.0000E+00
    -12.908  0.0000E+00  0.0000E+00
    -12.850  0.0000E+00  0.0000E+00
    -12.791  0.0000E+00  0.0000E+00
    -12.732  0.0000E+00  0.0000E+00
    -12.674  0.0000E+00  0.0000E+00
    -12.615  0.0000E+00  0.0000E+00
    -12.557  0.6956E-08  0.4077E-09
    -12.498  0.6164E-05  0.3617E-06
    -12.439  0.6393E-03  0.3783E-04
    -12.381  0.1034E-02  0.1004E-03
    -12.322  0.1054E-02  0.1689E-03
    -12.263  0.8847E-03  0.2252E-03
    -12.205  0.1282E-02  0.3053E-03
    -12.146  0.9772E-03  0.3632E-03
    -12.088  0.9757E-03  0.4206E-03
    -12.029  0.1365E-02  0.5008E-03
    -11.970  0.1505E-02  0.5902E-03
    -11.912  0.8001E-03  0.6427E-03
    -11.853  0.1223E-02  0.7146E-03
    -11.795  0.1263E-02  0.7905E-03
    -11.736  0.1118E-02  0.8626E-03
    -11.677  0.1441E-02  0.9514E-03
    -11.619  0.9514E-03  0.1013E-02
    -11.560  0.1350E-02  0.1100E-02
    -11.502  0.3406E-02  0.1302E-02
    -11.443  0.3848E-02  0.1543E-02
    -11.384  0.3285E-02  0.1740E-02
    -11.326  0.2303E-02  0.1883E-02
    -11.267  0.3565E-02  0.2095E-02
    -11.208  0.2717E-02  0.2269E-02
    -11.150  0.3529E-02  0.2477E-02
    -11.091  0.3218E-02  0.2667E-02
    -11.033  0.4027E-02  0.2910E-02
    -10.974  0.1848E-02  0.3022E-02
    -10.915  0.3874E-02  0.3254E-02
    -10.857  0.2314E-02  0.3410E-02
    -10.798  0.3815E-02  0.3641E-02
    -10.740  0.5142E-02  0.3949E-02
    -10.681  0.5364E-02  0.4283E-02
    -10.622  0.4708E-02  0.4578E-02
    -10.564  0.4889E-02  0.4875E-02
    -10.505  0.9669E-02  0.5448E-02
    -10.447  0.8021E-02  0.5942E-02
    -10.388  0.3105E-02  0.6147E-02
    -10.329  0.4416E-02  0.6413E-02
    -10.271  0.2835E-02  0.6590E-02
    -10.212  0.3738E-02  0.6810E-02
    -10.153  0.4992E-02  0.7113E-02
    -10.095  0.2249E-02  0.7255E-02
    -10.036  0.4686E-02  0.7534E-02
     -9.978  0.4944E-02  0.7835E-02
     -9.919  0.2534E-02  0.7996E-02
     -9.860  0.0000E+00  0.8000E-02
     -9.802  0.0000E+00  0.8000E-02
     -9.743  0.0000E+00  0.8000E-02
     -9.685  0.0000E+00  0.8000E-02
     -9.626  0.0000E+00  0.8000E-02
     -9.567  0.0000E+00  0.8000E-02
     -9.509  0.0000E+00  0.8000E-02
     -9.450  0.0000E+00  0.8000E-02
     -9.392  0.0000E+00  0.8000E-02
     -9.333  0.0000E+00  0.8000E-02
     -9.274  0.0000E+00  0.8000E-02
     -9.216  0.0000E+00  0.8000E-02
     -9.157  0.0000E+00  0.8000E-02
     -9.098  0.0000E+00  0.8000E-02
     -9.040  0.0000E+00  0.8000E-02
     -8.981  0.0000E+00  0.8000E-02
     -8.923  0.0000E+00  0.8000E-02
     -8.864  0.0000E+00  0.8000E-02
     -8.805  0.0000E+00  0.8000E-02
     -8.747  0.0000E+00  0.8000E-02
     -8.688  0.0000E+00  0.8000E-02
     -8.630  0.0000E+00  0.8000E-02
     -8.571  0.0000E+00  0.8000E-02
     -8.512  0.0000E+00  0.8000E-02
     -8.454  0.0000E+00  0.8000E-02
     -8.395  0.0000E+00  0.8000E-02
     -8.337  0.0000E+00  0.8000E-02
     -8.278  0.0000E+00  0.8000E-02
     -8.219  0.0000E+00  0.8000E-02
     -8.161  0.0000E+00  0.8000E-02
     -8.102  0.0000E+00  0.8000E-02
     -8.044  0.0000E+00  0.8000E-02
     -7.985  0.0000E+00  0.8000E-02
     -7.926  0.0000E+00  0.8000E-02
     -7.868  0.0000E+00  0.8000E-02
     -7.809  0.0000E+00  0.8000E-02
     -7.750  0.0000E+00  0.8000E-02
     -7.692  0.0000E+00  0.8000E-02
     -7.633  0.0000E+00  0.8000E-02
     -7.575  0.0000E+00  0.8000E-02
     -7.516  0.0000E+00  0.8000E-02
     -7.457  0.0000E+00  0.8000E-02
     -7.399  0.0000E+00  0.8000E-02
     -7.340  0.0000E+00  0.8000E-02
     -7.282  0.0000E+00  0.8000E-02
     -7.223  0.0000E+00  0.8000E-02
     -7.164  0.0000E+00  0.8000E-02
     -7.106  0.0000E+00  0.8000E-02
     -7.047  0.0000E+00  0.8000E-02
     -6.989  0.0000E+00  0.8000E-02
     -6.930  0.0000E+00  0.8000E-02
     -6.871  0.0000E+00  0.8000E-02
     -6.813  0.0000E+00  0.8000E-02
     -6.754  0.0000E+00  0.8000E-02
     -6.695  0.0000E+00  0.8000E-02
     -6.637  0.0000E+00  0.8000E-02
     -6.578  0.0000E+00  0.8000E-02
     -6.520  0.0000E+00  0.8000E-02
     -6.461  0.0000E+00  0.8000E-02
     -6.402  0.0000E+00  0.8000E-02
     -6.344  0.0000E+00  0.8000E-02
     -6.285  0.0000E+00  0.8000E-02
     -6.227  0.0000E+00  0.8000E-02
     -6.168  0.0000E+00  0.8000E-02
     -6.109  0.0000E+00  0.8000E-02
     -6.051  0.0000E+00  0.8000E-02
     -5.992  0.0000E+00  0.8000E-02
     -5.934  0.0000E+00  0.8000E-02
     -5.875  0.0000E+00  0.8000E-02
     -5.816  0.0000E+00  0.8000E-02
     -5.758  0.0000E+00  0.8000E-02
     -5.699  0.0000E+00  0.8000E-02
     -5.640  0.0000E+00  0.8000E-02
     -5.582  0.0000E+00  0.8000E-02
     -5.523  0.0000E+00  0.8000E-02
     -5.465  0.2254E-07  0.8000E-02
     -5.406  0.1935E-04  0.8001E-02
     -5.347  0.6888E-03  0.8042E-02
     -5.289  0.5426E-03  0.8074E-02
     -5.230  0.1889E-02  0.8188E-02
     -5.172  0.1931E-02  0.8304E-02
     -5.113  0.1975E-02  0.8421E-02
     -5.054  0.1487E-02  0.8513E-02
     -4.996  0.1932E-02  0.8628E-02
     -4.937  0.1709E-02  0.8730E-02
     -4.879  0.3357E-02  0.8931E-02
     -4.820  0.2194E-02  0.9065E-02
     -4.761  0.2207E-02  0.9198E-02
     -4.703  0.2129E-02  0.9323E-02
     -4.644  0.1936E-02  0.9442E-02
     -4.585  0.2571E-02  0.9596E-02
     -4.527  0.3441E-02  0.9809E-02
     -4.468  0.4423E-02  0.1008E-01
     -4.410  0.5081E-02  0.1039E-01
     -4.351  0.7840E-02  0.1085E-01
     -4.292  0.7363E-02  0.1130E-01
     -4.234  0.8556E-02  0.1181E-01
     -4.175  0.8423E-02  0.1232E-01
     -4.117  0.4179E-02  0.1259E-01
     -4.058  0.5370E-02  0.1291E-01
     -3.999  0.5126E-02  0.1322E-01
     -3.941  0.4501E-02  0.1348E-01
     -3.882  0.3942E-02  0.1373E-01
     -3.824  0.2949E-02  0.1391E-01
     -3.765  0.3741E-02  0.1414E-01
     -3.706  0.4138E-02  0.1439E-01
     -3.648  0.2765E-02  0.1456E-01
     -3.589  0.2237E-02  0.1470E-01
     -3.531  0.2845E-02  0.1488E-01
     -3.472  0.5100E-02  0.1518E-01
     -3.413  0.5972E-02  0.1554E-01
     -3.355  0.7402E-02  0.1598E-01
     -3.296  0.6493E-02  0.1637E-01
     -3.237  0.3298E-02  0.1658E-01
     -3.179  0.3815E-02  0.1681E-01
     -3.120  0.2566E-02  0.1697E-01
     -3.062  0.2910E-02  0.1714E-01
     -3.003  0.4958E-02  0.1744E-01
     -2.944  0.7481E-02  0.1788E-01
     -2.886  0.4188E-02  0.1815E-01
     -2.827  0.4068E-02  0.1840E-01
     -2.769  0.6045E-02  0.1877E-01
     -2.710  0.6172E-02  0.1914E-01
     -2.651  0.7447E-02  0.1959E-01
     -2.593  0.8031E-02  0.2011E-01
     -2.534  0.4243E-02  0.2039E-01
     -2.476  0.6308E-02  0.2077E-01
     -2.417  0.8979E-02  0.2132E-01
     -2.358  0.3870E-02  0.2156E-01
     -2.300  0.4405E-02  0.2183E-01
     -2.241  0.3553E-02  0.2205E-01
     -2.182  0.5874E-02  0.2241E-01
     -2.124  0.5136E-02  0.2272E-01
     -2.065  0.4723E-02  0.2301E-01
     -2.007  0.4980E-02  0.2332E-01
     -1.948  0.4959E-02  0.2364E-01
     -1.889  0.5116E-02  0.2394E-01
     -1.831  0.4773E-02  0.2423E-01
     -1.772  0.6635E-02  0.2464E-01
     -1.714  0.5285E-02  0.2496E-01
     -1.655  0.7953E-02  0.2543E-01
     -1.596  0.6420E-02  0.2583E-01
     -1.538  0.5115E-02  0.2613E-01
     -1.479  0.4178E-02  0.2639E-01
     -1.421  0.7123E-02  0.2682E-01
     -1.362  0.1226E-01  0.2755E-01
     -1.303  0.1060E-01  0.2820E-01
     -1.245  0.5970E-02  0.2856E-01
     -1.186  0.4927E-02  0.2886E-01
     -1.127  0.3130E-02  0.2905E-01
     -1.069  0.6055E-02  0.2941E-01
     -1.010  0.7435E-02  0.2985E-01
     -0.952  0.8352E-02  0.3035E-01
     -0.893  0.1041E-01  0.3098E-01
     -0.834  0.7124E-02  0.3142E-01
     -0.776  0.5672E-02  0.3177E-01
     -0.717  0.7433E-02  0.3222E-01
     -0.659  0.7227E-02  0.3266E-01
     -0.600  0.3568E-02  0.3288E-01
     -0.541  0.5482E-02  0.3321E-01
     -0.483  0.7636E-02  0.3367E-01
     -0.424  0.1774E-02  0.3379E-01
     -0.366  0.6414E-02  0.3417E-01
     -0.307  0.4174E-02  0.3443E-01
     -0.248  0.2912E-02  0.3461E-01
     -0.190  0.5133E-02  0.3492E-01
     -0.131  0.3561E-02  0.3513E-01
     -0.072  0.3108E-02  0.3532E-01
     -0.014  0.3792E-02  0.3555E-01
      0.045  0.2473E-02  0.3570E-01
      0.103  0.1156E-02  0.3577E-01
      0.162  0.4017E-03  0.3580E-01
      0.221  0.4196E-03  0.3583E-01
      0.279  0.3912E-03  0.3585E-01
      0.338  0.5799E-03  0.3589E-01
      0.396  0.1245E-02  0.3596E-01
      0.455  0.1531E-02  0.3605E-01
      0.514  0.1525E-02  0.3615E-01
      0.572  0.1729E-02  0.3626E-01
      0.631  0.2217E-02  0.3639E-01
      0.689  0.2956E-02  0.3656E-01
      0.748  0.5219E-02  0.3688E-01
      0.807  0.3494E-02  0.3709E-01
      0.865  0.1371E-02  0.3718E-01
      0.924  0.2745E-02  0.3734E-01
      0.982  0.7872E-03  0.3739E-01
      1.041  0.2472E-02  0.3754E-01
      1.100  0.2570E-02  0.3770E-01
      1.158  0.1338E-02  0.3778E-01
      1.217  0.2041E-02  0.3790E-01
      1.276  0.4816E-02  0.3818E-01
      1.334  0.3063E-02  0.3837E-01
      1.393  0.5607E-02  0.3871E-01
      1.451  0.6499E-02  0.3910E-01
      1.510  0.8423E-02  0.3961E-01
      1.569  0.4693E-02  0.3990E-01
      1.627  0.8411E-03  0.3995E-01
      1.686  0.7055E-03  0.4000E-01
      1.744  0.2305E-02  0.4014E-01
      1.803  0.8739E-02  0.4066E-01
      1.862  0.8117E-02  0.4115E-01
      1.920  0.5325E-02  0.4150E-01
      1.979  0.6038E-02  0.4187E-01
      2.037  0.5036E-02  0.4219E-01
      2.096  0.8646E-02  0.4271E-01
      2.155  0.7111E-02  0.4315E-01
      2.213  0.5700E-02  0.4350E-01
      2.272  0.4428E-02  0.4380E-01
      2.331  0.4190E-02  0.4406E-01
      2.389  0.7515E-02  0.4450E-01
      2.448  0.9177E-02  0.4505E-01
      2.506  0.1060E-01  0.4569E-01
      2.565  0.4517E-02  0.4599E-01
      2.624  0.3320E-02  0.4619E-01
      2.682  0.6124E-02  0.4656E-01
      2.741  0.4363E-02  0.4684E-01
      2.799  0.3310E-02  0.4705E-01
      2.858  0.2605E-02  0.4720E-01
      2.917  0.3149E-02  0.4740E-01
      2.975  0.1176E-02  0.4747E-01
      3.034  0.1744E-03  0.4748E-01
      3.092  0.4223E-03  0.4751E-01
      3.151  0.1319E-02  0.4759E-01
      3.210  0.2419E-02  0.4773E-01
      3.268  0.1463E-02  0.4783E-01
      3.327  0.3867E-03  0.4785E-01
      3.386  0.4086E-03  0.4788E-01
      3.444  0.8250E-03  0.4793E-01
      3.503  0.6729E-03  0.4797E-01
      3.561  0.4982E-03  0.4800E-01
      3.620  0.0000E+00  0.4800E-01
      3.679  0.0000E+00  0.4800E-01
      3.737  0.0000E+00  0.4800E-01
      3.796  0.0000E+00  0.4800E-01
      3.854  0.0000E+00  0.4800E-01
      3.913  0.0000E+00  0.4800E-01
      3.972  0.0000E+00  0.4800E-01
      4.030  0.0000E+00  0.4800E-01
      4.089  0.0000E+00  0.4800E-01
      4.147  0.0000E+00  0.4800E-01
      4.206  0.0000E+00  0.4800E-01
      4.265  0.0000E+00  0.4800E-01
      4.323  0.0000E+00  0.4800E-01
