    6    6 1000    1
  0.5861956E+02  0.3452000E-09  0.6368000E-09  0.1600000E-08  0.5000000E-15
  1.000000000000000E-004
  CAR 
 2D MoTe2 in a box                       
     36    162     24
 
  0.2777778E-01  0.2777778E-01  0.1262379E-14  0.6172840E-02
    1      -12.460606
    2      -11.562601
    3      -10.753995
    4      -10.491259
    5       -5.239151
    6       -4.566954
    7       -4.307687
    8       -3.558561
    9       -2.430326
   10       -2.018409
   11       -1.959813
   12       -1.651825
   13       -1.310844
   14       -0.956364
   15       -0.677808
   16       -0.220173
   17       -0.001158
   18        0.596663
   19        0.907657
   20        1.523806
   21        2.035575
   22        2.419336
   23        2.624399
   24        3.524062
 
  0.8333333E-01  0.2777778E-01  0.1262379E-14  0.6172840E-02
    1      -12.391486
    2      -11.515768
    3      -10.718158
    4      -10.445271
    5       -5.167002
    6       -4.488215
    7       -4.278375
    8       -3.526996
    9       -2.469744
   10       -2.173261
   11       -2.054199
   12       -1.711988
   13       -1.309251
   14       -0.914056
   15       -0.711113
   16       -0.393728
   17       -0.005056
   18        0.444491
   19        0.591006
   20        1.669888
   21        2.142297
   22        2.367281
   23        2.427446
   24        3.114052
 
  0.1388889E+00  0.2777778E-01  0.1262379E-14  0.6172840E-02
    1      -12.255012
    2      -11.424211
    3      -10.649914
    4      -10.358045
    5       -5.028566
    6       -4.352010
    7       -4.214654
    8       -3.477011
    9       -2.549037
   10       -2.454968
   11       -2.122585
   12       -1.941790
   13       -1.339782
   14       -1.027910
   15       -0.805504
   16       -0.529612
   17       -0.012254
   18        0.092383
   19        0.361449
   20        1.638058
   21        2.199851
   22        2.301534
   23        2.406064
   24        2.567433
 
  0.1944444E+00  0.2777778E-01  0.1262379E-14  0.6172840E-02
    1      -12.054957
    2      -11.292440
    3      -10.556478
    4      -10.240193
    5       -4.837735
    6       -4.263293
    7       -4.045548
    8       -3.434607
    9       -2.844061
   10       -2.623593
   11       -2.308211
   12       -2.206922
   13       -1.387026
   14       -1.228595
   15       -1.078512
   16       -0.712190
   17       -0.330015
   18        0.009908
   19        0.350509
   20        1.461969
   21        2.100503
   22        2.214057
   23        2.391797
   24        2.420672
 
  0.2500000E+00  0.2777778E-01  0.1262379E-14  0.6172840E-02
    1      -11.797735
    2      -11.127874
    3      -10.449352
    4      -10.110218
    5       -4.622805
    6       -4.263980
    7       -3.779061
    8       -3.477502
    9       -3.308023
   10       -2.662087
   11       -2.518358
   12       -2.425859
   13       -1.699511
   14       -1.412982
   15       -1.350221
   16       -0.987997
   17       -0.544000
   18       -0.041979
   19        0.496186
   20        1.350173
   21        1.832480
   22        2.237682
   23        2.361359
   24        2.510108
 
  0.3055556E+00  0.2777778E-01  0.1262379E-14  0.6172840E-02
    1      -11.493539
    2      -10.941764
    3      -10.344570
    4       -9.996930
    5       -4.443543
    6       -4.316674
    7       -3.962165
    8       -3.479764
    9       -3.329820
   10       -2.807550
   11       -2.683815
   12       -2.596550
   13       -2.236734
   14       -1.529910
   15       -1.403850
   16       -1.230605
   17       -0.692767
   18       -0.177526
   19        0.734082
   20        1.321204
   21        1.733844
   22        2.258223
   23        2.344974
   24        2.464442
 
  0.3611111E+00  0.2777778E-01  0.1262379E-14  0.6172840E-02
    1      -11.158778
    2      -10.750561
    3      -10.261360
    4       -9.938892
    5       -4.470569
    6       -4.341953
    7       -4.311596
    8       -3.410004
    9       -3.253504
   10       -3.092171
   11       -2.839712
   12       -2.798376
   13       -2.222646
   14       -1.689754
   15       -1.438766
   16       -1.329169
   17       -0.853501
   18       -0.390176
   19        1.008829
   20        1.368949
   21        1.758101
   22        2.088216
   23        2.278708
   24        2.484640
 
  0.4166667E+00  0.2777778E-01  0.1262379E-14  0.6172840E-02
    1      -10.821463
    2      -10.578109
    3      -10.215720
    4       -9.972460
    5       -4.637346
    6       -4.465979
    7       -4.318498
    8       -3.840424
    9       -3.317394
   10       -3.227001
   11       -2.750528
   12       -2.610293
   13       -2.085965
   14       -1.873448
   15       -1.464400
   16       -1.306856
   17       -1.008208
   18       -0.664156
   19        1.269143
   20        1.457614
   21        1.812635
   22        1.909068
   23        2.164187
   24        2.494334
 
  0.4722222E+00  0.2777778E-01  0.1262379E-14  0.6172840E-02
    1      -10.542602
    2      -10.468157
    3      -10.194765
    4      -10.096511
    5       -4.642847
    6       -4.536037
    7       -4.338835
    8       -4.210230
    9       -3.381411
   10       -3.348843
   11       -2.457755
   12       -2.334618
   13       -2.174540
   14       -2.084829
   15       -1.330641
   16       -1.253473
   17       -1.104147
   18       -0.962305
   19        1.448710
   20        1.502832
   21        1.805373
   22        1.809487
   23        2.223119
   24        2.381431
 
 -0.4722222E+00  0.2777778E-01  0.1262379E-14  0.6172840E-02
    1      -10.542602
    2      -10.468157
    3      -10.194765
    4      -10.096511
    5       -4.642847
    6       -4.536037
    7       -4.338835
    8       -4.210230
    9       -3.381411
   10       -3.348843
   11       -2.457755
   12       -2.334618
   13       -2.174540
   14       -2.084829
   15       -1.330641
   16       -1.253473
   17       -1.104147
   18       -0.962305
   19        1.448710
   20        1.502832
   21        1.805373
   22        1.809487
   23        2.223119
   24        2.381431
 
 -0.4166667E+00  0.2777778E-01  0.1262379E-14  0.6172840E-02
    1      -10.821463
    2      -10.578109
    3      -10.215720
    4       -9.972460
    5       -4.637346
    6       -4.465979
    7       -4.318498
    8       -3.840424
    9       -3.317394
   10       -3.227001
   11       -2.750528
   12       -2.610293
   13       -2.085965
   14       -1.873448
   15       -1.464400
   16       -1.306856
   17       -1.008208
   18       -0.664156
   19        1.269143
   20        1.457614
   21        1.812635
   22        1.909068
   23        2.164187
   24        2.494334
 
 -0.3611111E+00  0.2777778E-01  0.1262379E-14  0.6172840E-02
    1      -11.158778
    2      -10.750561
    3      -10.261360
    4       -9.938892
    5       -4.470569
    6       -4.341953
    7       -4.311596
    8       -3.410004
    9       -3.253504
   10       -3.092171
   11       -2.839712
   12       -2.798376
   13       -2.222646
   14       -1.689754
   15       -1.438766
   16       -1.329169
   17       -0.853501
   18       -0.390176
   19        1.008829
   20        1.368949
   21        1.758101
   22        2.088216
   23        2.278708
   24        2.484640
 
 -0.3055556E+00  0.2777778E-01  0.1262379E-14  0.6172840E-02
    1      -11.493539
    2      -10.941764
    3      -10.344570
    4       -9.996930
    5       -4.443543
    6       -4.316674
    7       -3.962165
    8       -3.479764
    9       -3.329820
   10       -2.807550
   11       -2.683815
   12       -2.596550
   13       -2.236734
   14       -1.529910
   15       -1.403850
   16       -1.230605
   17       -0.692767
   18       -0.177526
   19        0.734082
   20        1.321204
   21        1.733844
   22        2.258223
   23        2.344974
   24        2.464442
 
 -0.2500000E+00  0.2777778E-01  0.1262379E-14  0.6172840E-02
    1      -11.797735
    2      -11.127874
    3      -10.449352
    4      -10.110218
    5       -4.622805
    6       -4.263980
    7       -3.779061
    8       -3.477502
    9       -3.308023
   10       -2.662087
   11       -2.518358
   12       -2.425859
   13       -1.699511
   14       -1.412982
   15       -1.350221
   16       -0.987997
   17       -0.544000
   18       -0.041979
   19        0.496186
   20        1.350173
   21        1.832480
   22        2.237682
   23        2.361359
   24        2.510108
 
 -0.1944444E+00  0.2777778E-01  0.1262379E-14  0.6172840E-02
    1      -12.054957
    2      -11.292440
    3      -10.556478
    4      -10.240193
    5       -4.837735
    6       -4.263293
    7       -4.045548
    8       -3.434607
    9       -2.844061
   10       -2.623593
   11       -2.308211
   12       -2.206922
   13       -1.387026
   14       -1.228595
   15       -1.078512
   16       -0.712190
   17       -0.330015
   18        0.009908
   19        0.350509
   20        1.461969
   21        2.100503
   22        2.214057
   23        2.391797
   24        2.420672
 
 -0.1388889E+00  0.2777778E-01  0.1262379E-14  0.6172840E-02
    1      -12.255012
    2      -11.424211
    3      -10.649914
    4      -10.358045
    5       -5.028566
    6       -4.352010
    7       -4.214654
    8       -3.477011
    9       -2.549037
   10       -2.454968
   11       -2.122585
   12       -1.941790
   13       -1.339782
   14       -1.027910
   15       -0.805504
   16       -0.529612
   17       -0.012254
   18        0.092383
   19        0.361449
   20        1.638058
   21        2.199851
   22        2.301534
   23        2.406064
   24        2.567433
 
 -0.8333333E-01  0.2777778E-01  0.1262379E-14  0.6172840E-02
    1      -12.391486
    2      -11.515768
    3      -10.718158
    4      -10.445271
    5       -5.167002
    6       -4.488215
    7       -4.278375
    8       -3.526996
    9       -2.469744
   10       -2.173261
   11       -2.054199
   12       -1.711988
   13       -1.309251
   14       -0.914056
   15       -0.711113
   16       -0.393728
   17       -0.005056
   18        0.444491
   19        0.591006
   20        1.669888
   21        2.142297
   22        2.367281
   23        2.427446
   24        3.114052
 
 -0.2777778E-01  0.2777778E-01  0.1262379E-14  0.6172840E-02
    1      -12.460606
    2      -11.562601
    3      -10.753995
    4      -10.491259
    5       -5.239151
    6       -4.566954
    7       -4.307687
    8       -3.558561
    9       -2.430326
   10       -2.018409
   11       -1.959813
   12       -1.651825
   13       -1.310844
   14       -0.956364
   15       -0.677808
   16       -0.220173
   17       -0.001158
   18        0.596663
   19        0.907657
   20        1.523806
   21        2.035575
   22        2.419336
   23        2.624399
   24        3.524062
 
  0.2777778E-01  0.8333333E-01  0.1262379E-14  0.6172840E-02
    1      -12.442264
    2      -11.553676
    3      -10.794979
    4      -10.500480
    5       -5.215014
    6       -4.516238
    7       -4.289376
    8       -3.532708
    9       -2.480260
   10       -2.020536
   11       -1.937497
   12       -1.651582
   13       -1.392604
   14       -0.888900
   15       -0.706214
   16       -0.229787
   17        0.002184
   18        0.536008
   19        0.891913
   20        1.520094
   21        2.002411
   22        2.407341
   23        2.657340
   24        3.494346
 
  0.8333333E-01  0.8333333E-01  0.1262379E-14  0.6172840E-02
    1      -12.373339
    2      -11.506917
    3      -10.757305
    4      -10.455481
    5       -5.141533
    6       -4.437096
    7       -4.264016
    8       -3.500106
    9       -2.520567
   10       -2.186711
   11       -2.029412
   12       -1.704051
   13       -1.362123
   14       -0.892380
   15       -0.736306
   16       -0.381078
   17       -0.020773
   18        0.349541
   19        0.663452
   20        1.612914
   21        2.084792
   22        2.402665
   23        2.451747
   24        3.132336
 
  0.1388889E+00  0.8333333E-01  0.1262379E-14  0.6172840E-02
    1      -12.237274
    2      -11.415529
    3      -10.685708
    4      -10.369790
    5       -5.000525
    6       -4.301688
    7       -4.207849
    8       -3.450561
    9       -2.597092
   10       -2.447657
   11       -2.151797
   12       -1.897778
   13       -1.377920
   14       -1.047762
   15       -0.814436
   16       -0.515765
   17       -0.053271
   18        0.041661
   19        0.438090
   20        1.596243
   21        2.098770
   22        2.364321
   23        2.395479
   24        2.635186
 
  0.1944444E+00  0.8333333E-01  0.1262379E-14  0.6172840E-02
    1      -12.037897
    2      -11.284064
    3      -10.587895
    4      -10.253216
    5       -4.806842
    6       -4.237440
    7       -4.030760
    8       -3.415756
    9       -2.834749
   10       -2.631117
   11       -2.396031
   12       -2.132637
   13       -1.436017
   14       -1.297391
   15       -1.001468
   16       -0.736271
   17       -0.325768
   18       -0.034612
   19        0.399571
   20        1.459721
   21        2.032558
   22        2.163381
   23        2.399903
   24        2.535456
 
  0.2500000E+00  0.8333333E-01  0.1262379E-14  0.6172840E-02
    1      -11.781693
    2      -11.119996
    3      -10.475852
    4      -10.123321
    5       -4.596506
    6       -4.248379
    7       -3.799202
    8       -3.436633
    9       -3.296576
   10       -2.647581
   11       -2.577099
   12       -2.393258
   13       -1.806112
   14       -1.425164
   15       -1.244710
   16       -0.996877
   17       -0.536642
   18       -0.096494
   19        0.528830
   20        1.363323
   21        1.817615
   22        2.165414
   23        2.362784
   24        2.620531
 
  0.3055556E+00  0.8333333E-01  0.1262379E-14  0.6172840E-02
    1      -11.479048
    2      -10.934639
    3      -10.365949
    4      -10.008038
    5       -4.481424
    6       -4.274007
    7       -3.946705
    8       -3.480706
    9       -3.332247
   10       -2.790690
   11       -2.692561
   12       -2.609426
   13       -2.254519
   14       -1.514845
   15       -1.352387
   16       -1.226769
   17       -0.697037
   18       -0.226115
   19        0.751272
   20        1.341034
   21        1.728713
   22        2.218365
   23        2.322476
   24        2.580466
 
  0.3611111E+00  0.8333333E-01  0.1262379E-14  0.6172840E-02
    1      -11.146730
    2      -10.744478
    3      -10.277596
    4       -9.945480
    5       -4.598834
    6       -4.327977
    7       -4.189919
    8       -3.493931
    9       -3.306254
   10       -2.991655
   11       -2.827352
   12       -2.794855
   13       -2.198241
   14       -1.672820
   15       -1.393840
   16       -1.328574
   17       -0.867090
   18       -0.420201
   19        1.010821
   20        1.393250
   21        1.758188
   22        2.088059
   23        2.315109
   24        2.505015
 
  0.4166667E+00  0.8333333E-01  0.1262379E-14  0.6172840E-02
    1      -10.813652
    2      -10.573411
    3      -10.226547
    4       -9.972534
    5       -4.752799
    6       -4.409833
    7       -4.329134
    8       -3.870200
    9       -3.361499
   10       -3.111856
   11       -2.758782
   12       -2.586934
   13       -2.065467
   14       -1.859039
   15       -1.413205
   16       -1.307303
   17       -1.030306
   18       -0.667918
   19        1.259929
   20        1.480949
   21        1.822273
   22        1.928951
   23        2.200146
   24        2.489710
 
  0.4722222E+00  0.8333333E-01  0.1262379E-14  0.6172840E-02
    1      -10.542142
    2      -10.466575
    3      -10.196626
    4      -10.090897
    5       -4.744834
    6       -4.574454
    7       -4.349128
    8       -4.191645
    9       -3.356613
   10       -3.269829
   11       -2.465264
   12       -2.322678
   13       -2.154355
   14       -2.067490
   15       -1.302167
   16       -1.238051
   17       -1.125037
   18       -0.943142
   19        1.442024
   20        1.513552
   21        1.829971
   22        1.838229
   23        2.234921
   24        2.381279
 
 -0.4722222E+00  0.8333333E-01  0.1262379E-14  0.6172840E-02
    1      -10.542142
    2      -10.466575
    3      -10.196626
    4      -10.090897
    5       -4.744834
    6       -4.574454
    7       -4.349128
    8       -4.191645
    9       -3.356613
   10       -3.269829
   11       -2.465264
   12       -2.322678
   13       -2.154355
   14       -2.067490
   15       -1.302167
   16       -1.238051
   17       -1.125037
   18       -0.943142
   19        1.442024
   20        1.513552
   21        1.829971
   22        1.838229
   23        2.234921
   24        2.381279
 
 -0.4166667E+00  0.8333333E-01  0.1262379E-14  0.6172840E-02
    1      -10.813652
    2      -10.573411
    3      -10.226547
    4       -9.972534
    5       -4.752799
    6       -4.409833
    7       -4.329134
    8       -3.870200
    9       -3.361499
   10       -3.111856
   11       -2.758782
   12       -2.586934
   13       -2.065467
   14       -1.859039
   15       -1.413205
   16       -1.307303
   17       -1.030306
   18       -0.667918
   19        1.259929
   20        1.480949
   21        1.822273
   22        1.928951
   23        2.200146
   24        2.489710
 
 -0.3611111E+00  0.8333333E-01  0.1262379E-14  0.6172840E-02
    1      -11.146730
    2      -10.744478
    3      -10.277596
    4       -9.945480
    5       -4.598834
    6       -4.327977
    7       -4.189919
    8       -3.493931
    9       -3.306254
   10       -2.991655
   11       -2.827352
   12       -2.794855
   13       -2.198241
   14       -1.672820
   15       -1.393840
   16       -1.328574
   17       -0.867090
   18       -0.420201
   19        1.010821
   20        1.393250
   21        1.758188
   22        2.088059
   23        2.315109
   24        2.505015
 
 -0.3055556E+00  0.8333333E-01  0.1262379E-14  0.6172840E-02
    1      -11.479048
    2      -10.934639
    3      -10.365949
    4      -10.008038
    5       -4.481424
    6       -4.274007
    7       -3.946705
    8       -3.480706
    9       -3.332247
   10       -2.790690
   11       -2.692561
   12       -2.609426
   13       -2.254519
   14       -1.514845
   15       -1.352387
   16       -1.226769
   17       -0.697037
   18       -0.226115
   19        0.751272
   20        1.341034
   21        1.728713
   22        2.218365
   23        2.322476
   24        2.580466
 
 -0.2500000E+00  0.8333333E-01  0.1262379E-14  0.6172840E-02
    1      -11.781693
    2      -11.119996
    3      -10.475852
    4      -10.123321
    5       -4.596506
    6       -4.248379
    7       -3.799202
    8       -3.436633
    9       -3.296576
   10       -2.647581
   11       -2.577099
   12       -2.393258
   13       -1.806112
   14       -1.425164
   15       -1.244710
   16       -0.996877
   17       -0.536642
   18       -0.096494
   19        0.528830
   20        1.363323
   21        1.817615
   22        2.165414
   23        2.362784
   24        2.620531
 
 -0.1944444E+00  0.8333333E-01  0.1262379E-14  0.6172840E-02
    1      -12.037897
    2      -11.284064
    3      -10.587895
    4      -10.253216
    5       -4.806842
    6       -4.237440
    7       -4.030760
    8       -3.415756
    9       -2.834749
   10       -2.631117
   11       -2.396031
   12       -2.132637
   13       -1.436017
   14       -1.297391
   15       -1.001468
   16       -0.736271
   17       -0.325768
   18       -0.034612
   19        0.399571
   20        1.459721
   21        2.032558
   22        2.163381
   23        2.399903
   24        2.535456
 
 -0.1388889E+00  0.8333333E-01  0.1262379E-14  0.6172840E-02
    1      -12.237274
    2      -11.415529
    3      -10.685708
    4      -10.369790
    5       -5.000525
    6       -4.301688
    7       -4.207849
    8       -3.450561
    9       -2.597092
   10       -2.447657
   11       -2.151797
   12       -1.897778
   13       -1.377920
   14       -1.047762
   15       -0.814436
   16       -0.515765
   17       -0.053271
   18        0.041661
   19        0.438090
   20        1.596243
   21        2.098770
   22        2.364321
   23        2.395479
   24        2.635186
 
 -0.8333333E-01  0.8333333E-01  0.1262379E-14  0.6172840E-02
    1      -12.373339
    2      -11.506917
    3      -10.757305
    4      -10.455481
    5       -5.141533
    6       -4.437096
    7       -4.264016
    8       -3.500106
    9       -2.520567
   10       -2.186711
   11       -2.029412
   12       -1.704051
   13       -1.362123
   14       -0.892380
   15       -0.736306
   16       -0.381078
   17       -0.020773
   18        0.349541
   19        0.663452
   20        1.612914
   21        2.084792
   22        2.402665
   23        2.451747
   24        3.132336
 
 -0.2777778E-01  0.8333333E-01  0.1262379E-14  0.6172840E-02
    1      -12.442264
    2      -11.553676
    3      -10.794979
    4      -10.500480
    5       -5.215014
    6       -4.516238
    7       -4.289376
    8       -3.532708
    9       -2.480260
   10       -2.020536
   11       -1.937497
   12       -1.651582
   13       -1.392604
   14       -0.888900
   15       -0.706214
   16       -0.229787
   17        0.002184
   18        0.536008
   19        0.891913
   20        1.520094
   21        2.002411
   22        2.407341
   23        2.657340
   24        3.494346
 
  0.2777778E-01  0.1388889E+00  0.1262379E-14  0.6172840E-02
    1      -12.405812
    2      -11.536523
    3      -10.870315
    4      -10.521251
    5       -5.166781
    6       -4.434607
    7       -4.237296
    8       -3.490646
    9       -2.568182
   10       -2.017827
   11       -1.900974
   12       -1.652955
   13       -1.492840
   14       -0.825062
   15       -0.744279
   16       -0.249456
   17       -0.008206
   18        0.434729
   19        0.847630
   20        1.515955
   21        1.946210
   22        2.379368
   23        2.715991
   24        3.456145
 
  0.8333333E-01  0.1388889E+00  0.1262379E-14  0.6172840E-02
    1      -12.337291
    2      -11.489882
    3      -10.829898
    4      -10.477436
    5       -5.091237
    6       -4.354587
    7       -4.219122
    8       -3.454874
    9       -2.613776
   10       -2.200868
   11       -1.987917
   12       -1.691586
   13       -1.441175
   14       -0.875500
   15       -0.774761
   16       -0.365968
   17       -0.058663
   18        0.241901
   19        0.723278
   20        1.522331
   21        2.011655
   22        2.385240
   23        2.527652
   24        3.163401
 
  0.1388889E+00  0.1388889E+00  0.1262379E-14  0.6172840E-02
    1      -12.202042
    2      -11.398789
    3      -10.753035
    4      -10.393618
    5       -4.946077
    6       -4.203812
    7       -4.193709
    8       -3.403979
    9       -2.689119
   10       -2.442732
   11       -2.164800
   12       -1.843586
   13       -1.448804
   14       -1.077425
   15       -0.833033
   16       -0.502003
   17       -0.092938
   18       -0.050060
   19        0.539705
   20        1.511937
   21        2.021142
   22        2.329614
   23        2.444015
   24        2.719355
 
  0.1944444E+00  0.1388889E+00  0.1262379E-14  0.6172840E-02
    1      -12.004019
    2      -11.267872
    3      -10.647886
    4      -10.278593
    5       -4.747354
    6       -4.191395
    7       -3.996132
    8       -3.385082
    9       -2.827186
   10       -2.654278
   11       -2.467284
   12       -2.068684
   13       -1.541798
   14       -1.334051
   15       -0.938593
   16       -0.756238
   17       -0.335617
   18       -0.112934
   19        0.486955
   20        1.434373
   21        1.952623
   22        2.133759
   23        2.418336
   24        2.626660
 
  0.2500000E+00  0.1388889E+00  0.1262379E-14  0.6172840E-02
    1      -11.749847
    2      -11.104722
    3      -10.527036
    4      -10.148432
    5       -4.545551
    6       -4.217338
    7       -3.816484
    8       -3.432792
    9       -3.218784
   10       -2.662850
   11       -2.624586
   12       -2.372429
   13       -1.925326
   14       -1.426817
   15       -1.128055
   16       -1.008687
   17       -0.535794
   18       -0.190292
   19        0.590938
   20        1.370754
   21        1.793479
   22        2.103112
   23        2.380049
   24        2.722669
 
  0.3055556E+00  0.1388889E+00  0.1262379E-14  0.6172840E-02
    1      -11.450311
    2      -10.920817
    3      -10.407494
    4      -10.029407
    5       -4.518307
    6       -4.226044
    7       -3.913769
    8       -3.523460
    9       -3.297333
   10       -2.793125
   11       -2.712212
   12       -2.615847
   13       -2.252690
   14       -1.494305
   15       -1.265392
   16       -1.218773
   17       -0.708400
   18       -0.310525
   19        0.786624
   20        1.365818
   21        1.722324
   22        2.156360
   23        2.355451
   24        2.702893
 
  0.3611111E+00  0.1388889E+00  0.1262379E-14  0.6172840E-02
    1      -11.122902
    2      -10.732700
    3      -10.309037
    4       -9.958544
    5       -4.709884
    6       -4.328599
    7       -4.078765
    8       -3.595101
    9       -3.364047
   10       -2.898969
   11       -2.800174
   12       -2.776754
   13       -2.148945
   14       -1.640411
   15       -1.339860
   16       -1.303958
   17       -0.893065
   18       -0.470408
   19        1.019671
   20        1.426063
   21        1.763670
   22        2.083304
   23        2.376465
   24        2.554368
 
  0.4166667E+00  0.1388889E+00  0.1262379E-14  0.6172840E-02
    1      -10.798320
    2      -10.564476
    3      -10.246776
    4       -9.973568
    5       -4.879408
    6       -4.395443
    7       -4.366263
    8       -3.901759
    9       -3.350555
   10       -2.998120
   11       -2.773716
   12       -2.544779
   13       -2.019680
   14       -1.824968
   15       -1.352447
   16       -1.286271
   17       -1.068834
   18       -0.670547
   19        1.250890
   20        1.507665
   21        1.849018
   22        1.958023
   23        2.274920
   24        2.482823
 
  0.4722222E+00  0.1388889E+00  0.1262379E-14  0.6172840E-02
    1      -10.540875
    2      -10.464365
    3      -10.198584
    4      -10.081487
    5       -4.874273
    6       -4.680223
    7       -4.349958
    8       -4.184919
    9       -3.284765
   10       -3.167875
   11       -2.482687
   12       -2.319279
   13       -2.096269
   14       -2.018864
   15       -1.297428
   16       -1.211290
   17       -1.125445
   18       -0.902719
   19        1.433832
   20        1.522653
   21        1.881285
   22        1.889650
   23        2.261075
   24        2.382706
 
 -0.4722222E+00  0.1388889E+00  0.1262379E-14  0.6172840E-02
    1      -10.540875
    2      -10.464365
    3      -10.198584
    4      -10.081487
    5       -4.874273
    6       -4.680223
    7       -4.349958
    8       -4.184919
    9       -3.284765
   10       -3.167875
   11       -2.482687
   12       -2.319279
   13       -2.096269
   14       -2.018864
   15       -1.297428
   16       -1.211290
   17       -1.125445
   18       -0.902719
   19        1.433832
   20        1.522653
   21        1.881285
   22        1.889650
   23        2.261075
   24        2.382706
 
 -0.4166667E+00  0.1388889E+00  0.1262379E-14  0.6172840E-02
    1      -10.798320
    2      -10.564476
    3      -10.246776
    4       -9.973568
    5       -4.879408
    6       -4.395443
    7       -4.366263
    8       -3.901759
    9       -3.350555
   10       -2.998120
   11       -2.773716
   12       -2.544779
   13       -2.019680
   14       -1.824968
   15       -1.352447
   16       -1.286271
   17       -1.068834
   18       -0.670547
   19        1.250890
   20        1.507665
   21        1.849018
   22        1.958023
   23        2.274920
   24        2.482823
 
 -0.3611111E+00  0.1388889E+00  0.1262379E-14  0.6172840E-02
    1      -11.122902
    2      -10.732700
    3      -10.309037
    4       -9.958544
    5       -4.709884
    6       -4.328599
    7       -4.078765
    8       -3.595101
    9       -3.364047
   10       -2.898969
   11       -2.800174
   12       -2.776754
   13       -2.148945
   14       -1.640411
   15       -1.339860
   16       -1.303958
   17       -0.893065
   18       -0.470408
   19        1.019671
   20        1.426063
   21        1.763670
   22        2.083304
   23        2.376465
   24        2.554368
 
 -0.3055556E+00  0.1388889E+00  0.1262379E-14  0.6172840E-02
    1      -11.450311
    2      -10.920817
    3      -10.407494
    4      -10.029407
    5       -4.518307
    6       -4.226044
    7       -3.913769
    8       -3.523460
    9       -3.297333
   10       -2.793125
   11       -2.712212
   12       -2.615847
   13       -2.252690
   14       -1.494305
   15       -1.265392
   16       -1.218773
   17       -0.708400
   18       -0.310525
   19        0.786624
   20        1.365818
   21        1.722324
   22        2.156360
   23        2.355451
   24        2.702893
 
 -0.2500000E+00  0.1388889E+00  0.1262379E-14  0.6172840E-02
    1      -11.749847
    2      -11.104722
    3      -10.527036
    4      -10.148432
    5       -4.545551
    6       -4.217338
    7       -3.816484
    8       -3.432792
    9       -3.218784
   10       -2.662850
   11       -2.624586
   12       -2.372429
   13       -1.925326
   14       -1.426817
   15       -1.128055
   16       -1.008687
   17       -0.535794
   18       -0.190292
   19        0.590938
   20        1.370754
   21        1.793479
   22        2.103112
   23        2.380049
   24        2.722669
 
 -0.1944444E+00  0.1388889E+00  0.1262379E-14  0.6172840E-02
    1      -12.004019
    2      -11.267872
    3      -10.647886
    4      -10.278593
    5       -4.747354
    6       -4.191395
    7       -3.996132
    8       -3.385082