       N       E                     dE             d eps       ncg     rms          rms(c)
DAV:   1     0.186029287120E+03    0.18603E+03   -0.95555E+03  7776   0.792E+02
DAV:   2    -0.182237787568E+02   -0.20425E+03   -0.19920E+03 11536   0.177E+02
DAV:   3    -0.367385000909E+02   -0.18515E+02   -0.18283E+02 10304   0.595E+01
DAV:   4    -0.374067553158E+02   -0.66826E+00   -0.66604E+00 12448   0.127E+01
DAV:   5    -0.374171113729E+02   -0.10356E-01   -0.10350E-01 11256   0.175E+00    0.216E+01
DAV:   6    -0.364785238421E+02    0.93859E+00   -0.43903E+00 10832   0.975E+00    0.867E+00
DAV:   7    -0.365037763904E+02   -0.25253E-01   -0.59500E+00  9936   0.117E+01    0.651E+00
DAV:   8    -0.359985488364E+02    0.50523E+00   -0.14231E+00 10216   0.628E+00    0.229E+00
DAV:   9    -0.359900792670E+02    0.84696E-02   -0.34029E-01 11856   0.273E+00    0.110E+00
DAV:  10    -0.359842298563E+02    0.58494E-02   -0.32958E-02 10280   0.983E-01    0.512E-01
DAV:  11    -0.359829995454E+02    0.12303E-02   -0.73452E-03 11032   0.466E-01    0.258E-01
DAV:  12    -0.359824656657E+02    0.53388E-03   -0.31458E-03 11368   0.301E-01    0.105E-01
DAV:  13    -0.359823091620E+02    0.15650E-03   -0.84710E-04 11472   0.150E-01    0.461E-02
DAV:  14    -0.359820863029E+02    0.22286E-03   -0.20087E-04  9528   0.596E-02    0.347E-02
DAV:  15    -0.359818384911E+02    0.24781E-03   -0.37127E-04  9632   0.711E-02    0.346E-02
DAV:  16    -0.359818802014E+02   -0.41710E-04   -0.20414E-05 11328   0.201E-02    0.265E-02
DAV:  17    -0.359820403021E+02   -0.16010E-03   -0.23137E-05 10896   0.231E-02    0.689E-03
DAV:  18    -0.359821566834E+02   -0.11638E-03   -0.19050E-05  9256   0.170E-02    0.148E-02
DAV:  19    -0.359822363918E+02   -0.79708E-04   -0.29945E-06  8984   0.800E-03    0.289E-03
DAV:  20    -0.359822888534E+02   -0.52462E-04   -0.14701E-06  7344   0.560E-03    0.467E-03
DAV:  21    -0.359823023205E+02   -0.13467E-04   -0.29811E-07  6352   0.212E-03    0.173E-03
DAV:  22    -0.359823088663E+02   -0.65458E-05   -0.29633E-07  6360   0.171E-03    0.144E-03
DAV:  23    -0.359823099559E+02   -0.10896E-05   -0.12061E-07  5928   0.132E-03    0.916E-04
DAV:  24    -0.359823100615E+02   -0.10553E-06   -0.24003E-08  5304   0.730E-04
   1 F= -.35982310E+02 E0= -.35982154E+02  d E =-.359823E+02
       N       E                     dE             d eps       ncg     rms          rms(c)
DAV:   1    -0.359823422292E+02   -0.32273E-04   -0.71377E-03  7808   0.410E-01    0.309E-02
DAV:   2    -0.359823480582E+02   -0.58290E-05   -0.82045E-05 10432   0.457E-02    0.965E-03
DAV:   3    -0.359823473574E+02    0.70074E-06   -0.26386E-06  8608   0.848E-03
   2 F= -.35982347E+02 E0= -.35982204E+02  d E =-.372960E-04
       N       E                     dE             d eps       ncg     rms          rms(c)
DAV:   1    -0.359823473908E+02    0.66735E-06   -0.21856E-04  8096   0.721E-02    0.561E-03
DAV:   2    -0.359823472420E+02    0.14882E-06   -0.27536E-06  8080   0.940E-03
   3 F= -.35982347E+02 E0= -.35982206E+02  d E =-.371806E-04
       N       E                     dE             d eps       ncg     rms          rms(c)
DAV:   1    -0.359823522821E+02   -0.48912E-05   -0.58773E-04  8016   0.117E-01    0.136E-02
DAV:   2    -0.359823528194E+02   -0.53735E-06   -0.16035E-05 10480   0.199E-02    0.889E-03
DAV:   3    -0.359823524624E+02    0.35701E-06   -0.60061E-07  5968   0.487E-03
   4 F= -.35982352E+02 E0= -.35982212E+02  d E =-.522039E-05
       N       E                     dE             d eps       ncg     rms          rms(c)
DAV:   1    -0.359823522637E+02    0.55569E-06   -0.60904E-05  8112   0.378E-02    0.568E-03
DAV:   2    -0.359823523432E+02   -0.79525E-07   -0.47699E-06  9768   0.119E-02
   5 F= -.35982352E+02 E0= -.35982213E+02  d E =-.510124E-05
