<?xml version="1.0" encoding="ISO-8859-1"?>
<modeling>
 <generator>
  <i name="program" type="string">vasp </i>
  <i name="version" type="string">5.3.5  </i>
  <i name="subversion" type="string">31Mar14 (build Mar 18 2017 11:34:20) complex                          parallel </i>
  <i name="platform" type="string">LinuxIFC </i>
  <i name="date" type="string">2017 10 27 </i>
  <i name="time" type="string">23:18:12 </i>
 </generator>
 <incar>
  <i type="string" name="SYSTEM"> 2D MoTe2 in a box</i>
  <i type="string" name="PREC">accurate</i>
  <i type="string" name="ALGO"> Normal</i>
  <i type="int" name="NELMDL">    -5</i>
  <i type="int" name="IBRION">     2</i>
  <i name="EDIFF">      0.00000100</i>
  <i type="int" name="NSW">  1000</i>
  <i type="int" name="ISIF">     2</i>
  <i type="int" name="ISYM">     0</i>
  <i name="ENCUT">    350.00000000</i>
  <i name="POTIM">      0.50000000</i>
  <i name="NELECT">     35.98000000</i>
  <i type="logical" name="LREAL"> F  </i>
  <i type="int" name="ISMEAR">    -1</i>
  <i name="SIGMA">      0.00862174</i>
  <i type="int" name="NWRITE">     3</i>
  <i type="logical" name="LWAVE"> F  </i>
  <i type="logical" name="LCHARG"> F  </i>
 </incar>
 <kpoints>
  <generation param="Monkhorst-Pack">
   <v type="int" name="divisions">      18       18        1 </v>
   <v name="usershift">      0.00000000       0.00000000       0.00000000 </v>
   <v name="genvec1">      0.05555556       0.00000000       0.00000000 </v>
   <v name="genvec2">      0.00000000       0.05555556       0.00000000 </v>
   <v name="genvec3">      0.00000000       0.00000000       1.00000000 </v>
   <v name="shift">      0.50000000       0.50000000       0.00000000 </v>
  </generation>
  <varray name="kpointlist" >
   <v>       0.02777778       0.02777778       0.00000000 </v>
   <v>       0.08333333       0.02777778       0.00000000 </v>
   <v>       0.13888889       0.02777778       0.00000000 </v>
   <v>       0.19444444       0.02777778       0.00000000 </v>
   <v>       0.25000000       0.02777778       0.00000000 </v>
   <v>       0.30555556       0.02777778       0.00000000 </v>
   <v>       0.36111111       0.02777778       0.00000000 </v>
   <v>       0.41666667       0.02777778       0.00000000 </v>
   <v>       0.47222222       0.02777778       0.00000000 </v>
   <v>      -0.47222222       0.02777778       0.00000000 </v>
   <v>      -0.41666667       0.02777778       0.00000000 </v>
   <v>      -0.36111111       0.02777778       0.00000000 </v>
   <v>      -0.30555556       0.02777778       0.00000000 </v>
   <v>      -0.25000000       0.02777778       0.00000000 </v>
   <v>      -0.19444444       0.02777778       0.00000000 </v>
   <v>      -0.13888889       0.02777778       0.00000000 </v>
   <v>      -0.08333333       0.02777778       0.00000000 </v>
   <v>      -0.02777778       0.02777778       0.00000000 </v>
   <v>       0.02777778       0.08333333       0.00000000 </v>
   <v>       0.08333333       0.08333333       0.00000000 </v>
   <v>       0.13888889       0.08333333       0.00000000 </v>
   <v>       0.19444444       0.08333333       0.00000000 </v>
   <v>       0.25000000       0.08333333       0.00000000 </v>
   <v>       0.30555556       0.08333333       0.00000000 </v>
   <v>       0.36111111       0.08333333       0.00000000 </v>
   <v>       0.41666667       0.08333333       0.00000000 </v>
   <v>       0.47222222       0.08333333       0.00000000 </v>
   <v>      -0.47222222       0.08333333       0.00000000 </v>
   <v>      -0.41666667       0.08333333       0.00000000 </v>
   <v>      -0.36111111       0.08333333       0.00000000 </v>
   <v>      -0.30555556       0.08333333       0.00000000 </v>
   <v>      -0.25000000       0.08333333       0.00000000 </v>
   <v>      -0.19444444       0.08333333       0.00000000 </v>
   <v>      -0.13888889       0.08333333       0.00000000 </v>
   <v>      -0.08333333       0.08333333       0.00000000 </v>
   <v>      -0.02777778       0.08333333       0.00000000 </v>
   <v>       0.02777778       0.13888889       0.00000000 </v>
   <v>       0.08333333       0.13888889       0.00000000 </v>
   <v>       0.13888889       0.13888889       0.00000000 </v>
   <v>       0.19444444       0.13888889       0.00000000 </v>
   <v>       0.25000000       0.13888889       0.00000000 </v>
   <v>       0.30555556       0.13888889       0.00000000 </v>
   <v>       0.36111111       0.13888889       0.00000000 </v>
   <v>       0.41666667       0.13888889       0.00000000 </v>
   <v>       0.47222222       0.13888889       0.00000000 </v>
   <v>      -0.47222222       0.13888889       0.00000000 </v>
   <v>      -0.41666667       0.13888889       0.00000000 </v>
   <v>      -0.36111111       0.13888889       0.00000000 </v>
   <v>      -0.30555556       0.13888889       0.00000000 </v>
   <v>      -0.25000000       0.13888889       0.00000000 </v>
   <v>      -0.19444444       0.13888889       0.00000000 </v>
   <v>      -0.13888889       0.13888889       0.00000000 </v>
   <v>      -0.08333333       0.13888889       0.00000000 </v>
   <v>      -0.02777778       0.13888889       0.00000000 </v>
   <v>       0.02777778       0.19444444       0.00000000 </v>
   <v>       0.08333333       0.19444444       0.00000000 </v>
   <v>       0.13888889       0.19444444       0.00000000 </v>
   <v>       0.19444444       0.19444444       0.00000000 </v>
   <v>       0.25000000       0.19444444       0.00000000 </v>
   <v>       0.30555556       0.19444444       0.00000000 </v>
   <v>       0.36111111       0.19444444       0.00000000 </v>
   <v>       0.41666667       0.19444444       0.00000000 </v>
   <v>       0.47222222       0.19444444       0.00000000 </v>
   <v>      -0.47222222       0.19444444       0.00000000 </v>
   <v>      -0.41666667       0.19444444       0.00000000 </v>
   <v>      -0.36111111       0.19444444       0.00000000 </v>
   <v>      -0.30555556       0.19444444       0.00000000 </v>
   <v>      -0.25000000       0.19444444       0.00000000 </v>
   <v>      -0.19444444       0.19444444       0.00000000 </v>
   <v>      -0.13888889       0.19444444       0.00000000 </v>
   <v>      -0.08333333       0.19444444       0.00000000 </v>
   <v>      -0.02777778       0.19444444       0.00000000 </v>
   <v>       0.02777778       0.25000000       0.00000000 </v>
   <v>       0.08333333       0.25000000       0.00000000 </v>
   <v>       0.13888889       0.25000000       0.00000000 </v>
   <v>       0.19444444       0.25000000       0.00000000 </v>
   <v>       0.25000000       0.25000000       0.00000000 </v>
   <v>       0.30555556       0.25000000       0.00000000 </v>
   <v>       0.36111111       0.25000000       0.00000000 </v>
   <v>       0.41666667       0.25000000       0.00000000 </v>
   <v>       0.47222222       0.25000000       0.00000000 </v>
   <v>      -0.47222222       0.25000000       0.00000000 </v>
   <v>      -0.41666667       0.25000000       0.00000000 </v>
   <v>      -0.36111111       0.25000000       0.00000000 </v>
   <v>      -0.30555556       0.25000000       0.00000000 </v>
   <v>      -0.25000000       0.25000000       0.00000000 </v>
   <v>      -0.19444444       0.25000000       0.00000000 </v>
   <v>      -0.13888889       0.25000000       0.00000000 </v>
   <v>      -0.08333333       0.25000000       0.00000000 </v>
   <v>      -0.02777778       0.25000000       0.00000000 </v>
   <v>       0.02777778       0.30555556       0.00000000 </v>
   <v>       0.08333333       0.30555556       0.00000000 </v>
   <v>       0.13888889       0.30555556       0.00000000 </v>
   <v>       0.19444444       0.30555556       0.00000000 </v>
   <v>       0.25000000       0.30555556       0.00000000 </v>
   <v>       0.30555556       0.30555556       0.00000000 </v>
   <v>       0.36111111       0.30555556       0.00000000 </v>
   <v>       0.41666667       0.30555556       0.00000000 </v>
   <v>       0.47222222       0.30555556       0.00000000 </v>
   <v>      -0.47222222       0.30555556       0.00000000 </v>
   <v>      -0.41666667       0.30555556       0.00000000 </v>
   <v>      -0.36111111       0.30555556       0.00000000 </v>
   <v>      -0.30555556       0.30555556       0.00000000 </v>
   <v>      -0.25000000       0.30555556       0.00000000 </v>
   <v>      -0.19444444       0.30555556       0.00000000 </v>
   <v>      -0.13888889       0.30555556       0.00000000 </v>
   <v>      -0.08333333       0.30555556       0.00000000 </v>
   <v>      -0.02777778       0.30555556       0.00000000 </v>
   <v>       0.02777778       0.36111111       0.00000000 </v>
   <v>       0.08333333       0.36111111       0.00000000 </v>
   <v>       0.13888889       0.36111111       0.00000000 </v>
   <v>       0.19444444       0.36111111       0.00000000 </v>
   <v>       0.25000000       0.36111111       0.00000000 </v>
   <v>       0.30555556       0.36111111       0.00000000 </v>
   <v>       0.36111111       0.36111111       0.00000000 </v>
   <v>       0.41666667       0.36111111       0.00000000 </v>
   <v>       0.47222222       0.36111111       0.00000000 </v>
   <v>      -0.47222222       0.36111111       0.00000000 </v>
   <v>      -0.41666667       0.36111111       0.00000000 </v>
   <v>      -0.36111111       0.36111111       0.00000000 </v>
   <v>      -0.30555556       0.36111111       0.00000000 </v>
   <v>      -0.25000000       0.36111111       0.00000000 </v>
   <v>      -0.19444444       0.36111111       0.00000000 </v>
   <v>      -0.13888889       0.36111111       0.00000000 </v>
   <v>      -0.08333333       0.36111111       0.00000000 </v>
   <v>      -0.02777778       0.36111111       0.00000000 </v>
   <v>       0.02777778       0.41666667       0.00000000 </v>
   <v>       0.08333333       0.41666667       0.00000000 </v>
   <v>       0.13888889       0.41666667       0.00000000 </v>
   <v>       0.19444444       0.41666667       0.00000000 </v>
   <v>       0.25000000       0.41666667       0.00000000 </v>
   <v>       0.30555556       0.41666667       0.00000000 </v>
   <v>       0.36111111       0.41666667       0.00000000 </v>
   <v>       0.41666667       0.41666667       0.00000000 </v>
   <v>       0.47222222       0.41666667       0.00000000 </v>
   <v>      -0.47222222       0.41666667       0.00000000 </v>
   <v>      -0.41666667       0.41666667       0.00000000 </v>
   <v>      -0.36111111       0.41666667       0.00000000 </v>
   <v>      -0.30555556       0.41666667       0.00000000 </v>
   <v>      -0.25000000       0.41666667       0.00000000 </v>
   <v>      -0.19444444       0.41666667       0.00000000 </v>
   <v>      -0.13888889       0.41666667       0.00000000 </v>
   <v>      -0.08333333       0.41666667       0.00000000 </v>
   <v>      -0.02777778       0.41666667       0.00000000 </v>
   <v>       0.02777778       0.47222222       0.00000000 </v>
   <v>       0.08333333       0.47222222       0.00000000 </v>
   <v>       0.13888889       0.47222222       0.00000000 </v>
   <v>       0.19444444       0.47222222       0.00000000 </v>
   <v>       0.25000000       0.47222222       0.00000000 </v>
   <v>       0.30555556       0.47222222       0.00000000 </v>
   <v>       0.36111111       0.47222222       0.00000000 </v>
   <v>       0.41666667       0.47222222       0.00000000 </v>
   <v>       0.47222222       0.47222222       0.00000000 </v>
   <v>      -0.47222222       0.47222222       0.00000000 </v>
   <v>      -0.41666667       0.47222222       0.00000000 </v>
   <v>      -0.36111111       0.47222222       0.00000000 </v>
   <v>      -0.30555556       0.47222222       0.00000000 </v>
   <v>      -0.25000000       0.47222222       0.00000000 </v>
   <v>      -0.19444444       0.47222222       0.00000000 </v>
   <v>      -0.13888889       0.47222222       0.00000000 </v>
   <v>      -0.08333333       0.47222222       0.00000000 </v>
   <v>      -0.02777778       0.47222222       0.00000000 </v>
  </varray>
  <varray name="weights" >
   <v>       0.00617284 </v>
   <v>       0.00617284 </v>
   <v>       0.00617284 </v>
   <v>       0.00617284 </v>
   <v>       0.00617284 </v>
   <v>       0.00617284 </v>
   <v>       0.00617284 </v>
   <v>       0.00617284 </v>
   <v>       0.00617284 </v>
   <v>       0.00617284 </v>
   <v>       0.00617284 </v>
   <v>       0.00617284 </v>
   <v>       0.00617284 </v>
   <v>       0.00617284 </v>
   <v>       0.00617284 </v>
   <v>       0.00617284 </v>
   <v>       0.00617284 </v>
   <v>       0.00617284 </v>
   <v>       0.00617284 </v>
   <v>       0.00617284 </v>
   <v>       0.00617284 </v>
   <v>       0.00617284 </v>
   <v>       0.00617284 </v>
   <v>       0.00617284 </v>
   <v>       0.00617284 </v>
   <v>       0.00617284 </v>
   <v>       0.00617284 </v>
   <v>       0.00617284 </v>
   <v>       0.00617284 </v>
   <v>       0.00617284 </v>
   <v>       0.00617284 </v>
   <v>       0.00617284 </v>
   <v>       0.00617284 </v>
   <v>       0.00617284 </v>
   <v>       0.00617284 </v>
   <v>       0.00617284 </v>
   <v>       0.00617284 </v>
   <v>       0.00617284 </v>
   <v>       0.00617284 </v>
   <v>       0.00617284 </v>
   <v>       0.00617284 </v>
   <v>       0.00617284 </v>
   <v>       0.00617284 </v>
   <v>       0.00617284 </v>
   <v>       0.00617284 </v>
   <v>       0.00617284 </v>
   <v>       0.00617284 </v>
   <v>       0.00617284 </v>
   <v>       0.00617284 </v>
   <v>       0.00617284 </v>
   <v>       0.00617284 </v>
   <v>       0.00617284 </v>
   <v>       0.00617284 </v>
   <v>       0.00617284 </v>
   <v>       0.00617284 </v>
   <v>       0.00617284 </v>
   <v>       0.00617284 </v>
   <v>       0.00617284 </v>
   <v>       0.00617284 </v>
   <v>       0.00617284 </v>
   <v>       0.00617284 </v>
   <v>       0.00617284 </v>
   <v>       0.00617284 </v>
   <v>       0.00617284 </v>
   <v>       0.00617284 </v>
   <v>       0.00617284 </v>
   <v>       0.00617284 </v>
   <v>       0.00617284 </v>
   <v>       0.00617284 </v>
   <v>       0.00617284 </v>
   <v>       0.00617284 </v>
   <v>       0.00617284 </v>
   <v>       0.00617284 </v>
   <v>       0.00617284 </v>
   <v>       0.00617284 </v>
   <v>       0.00617284 </v>
   <v>       0.00617284 </v>
   <v>       0.00617284 </v>
   <v>       0.00617284 </v>
   <v>       0.00617284 </v>
   <v>       0.00617284 </v>
   <v>       0.00617284 </v>
   <v>       0.00617284 </v>
   <v>       0.00617284 </v>
   <v>       0.00617284 </v>
   <v>       0.00617284 </v>
   <v>       0.00617284 </v>
   <v>       0.00617284 </v>
   <v>       0.00617284 </v>
   <v>       0.00617284 </v>
   <v>       0.00617284 </v>
   <v>       0.00617284 </v>
   <v>       0.00617284 </v>
   <v>       0.00617284 </v>
   <v>       0.00617284 </v>
   <v>       0.00617284 </v>
   <v>       0.00617284 </v>
   <v>       0.00617284 </v>
   <v>       0.00617284 </v>
   <v>       0.00617284 </v>
   <v>       0.00617284 </v>
   <v>       0.00617284 </v>
   <v>       0.00617284 </v>
   <v>       0.00617284 </v>
   <v>       0.00617284 </v>
   <v>       0.00617284 </v>
   <v>       0.00617284 </v>
   <v>       0.00617284 </v>
   <v>       0.00617284 </v>
   <v>       0.00617284 </v>
   <v>       0.00617284 </v>
   <v>       0.00617284 </v>
   <v>       0.00617284 </v>
   <v>       0.00617284 </v>
   <v>       0.00617284 </v>
   <v>       0.00617284 </v>
   <v>       0.00617284 </v>
   <v>       0.00617284 </v>
   <v>       0.00617284 </v>
   <v>       0.00617284 </v>
   <v>       0.00617284 </v>
   <v>       0.00617284 </v>
   <v>       0.00617284 </v>
   <v>       0.00617284 </v>
   <v>       0.00617284 </v>
   <v>       0.00617284 </v>
   <v>       0.00617284 </v>
   <v>       0.00617284 </v>
   <v>       0.00617284 </v>
   <v>       0.00617284 </v>
   <v>       0.00617284 </v>
   <v>       0.00617284 </v>
   <v>       0.00617284 </v>
   <v>       0.00617284 </v>
   <v>       0.00617284 </v>
   <v>       0.00617284 </v>
   <v>       0.00617284 </v>
   <v>       0.00617284 </v>
   <v>       0.00617284 </v>
   <v>       0.00617284 </v>
   <v>       0.00617284 </v>
   <v>       0.00617284 </v>
   <v>       0.00617284 </v>
   <v>       0.00617284 </v>
   <v>       0.00617284 </v>
   <v>       0.00617284 </v>
   <v>       0.00617284 </v>
   <v>       0.00617284 </v>
   <v>       0.00617284 </v>
   <v>       0.00617284 </v>
   <v>       0.00617284 </v>
   <v>       0.00617284 </v>
   <v>       0.00617284 </v>
   <v>       0.00617284 </v>
   <v>       0.00617284 </v>
   <v>       0.00617284 </v>
   <v>       0.00617284 </v>
   <v>       0.00617284 </v>
   <v>       0.00617284 </v>
   <v>       0.00617284 </v>
   <v>       0.00617284 </v>
   <v>       0.00617284 </v>
  </varray>
 </kpoints>
 <parameters>
  <separator name="general" >
   <i type="string" name="SYSTEM">2D MoTe2 in a box</i>
   <i type="logical" name="LCOMPAT"> F  </i>
  </separator>
  <separator name="electronic" >
   <i type="string" name="PREC">accura</i>
   <i name="ENMAX">    350.00000000</i>
   <i name="ENAUG">    368.79200000</i>
   <i name="EDIFF">      0.00000100</i>
   <i type="int" name="IALGO">    38</i>
   <i type="int" name="IWAVPR">    11</i>
   <i type="int" name="NBANDS">    24</i>
   <i name="NELECT">     35.98000000</i>
   <i type="int" name="TURBO">     0</i>
   <i type="int" name="IRESTART">     0</i>
   <i type="int" name="NREBOOT">     0</i>
   <i type="int" name="NMIN">     0</i>
   <i name="EREF">      0.00000000</i>
   <separator name="electronic smearing" >
    <i type="int" name="ISMEAR">    -1</i>
    <i name="SIGMA">      0.00862174</i>
    <i name="KSPACING">      0.50000000</i>
    <i type="logical" name="KGAMMA"> T  </i>
   </separator>
   <separator name="electronic projectors" >
    <i type="logical" name="LREAL"> F  </i>
    <v name="ROPT">      0.00000000      0.00000000</v>
    <i type="int" name="LMAXPAW">  -100</i>
    <i type="int" name="LMAXMIX">     2</i>
    <i type="logical" name="NLSPLINE"> F  </i>
   </separator>
   <separator name="electronic startup" >
    <i type="int" name="ISTART">     0</i>
    <i type="int" name="ICHARG">     2</i>
    <i type="int" name="INIWAV">     1</i>
   </separator>
   <separator name="electronic spin" >
    <i type="int" name="ISPIN">     1</i>
    <i type="logical" name="LNONCOLLINEAR"> F  </i>
    <v name="MAGMOM">      1.00000000      1.00000000      1.00000000      1.00000000      1.00000000      1.00000000</v>
    <i name="NUPDOWN">     -1.00000000</i>
    <i type="logical" name="LSORBIT"> F  </i>
    <v name="SAXIS">      0.00000000      0.00000000      1.00000000</v>
    <i type="logical" name="LSPIRAL"> F  </i>
    <v name="QSPIRAL">      0.00000000      0.00000000      0.00000000</v>
    <i type="logical" name="LZEROZ"> F  </i>
   </separator>
   <separator name="electronic exchange-correlation" >
    <i type="logical" name="LASPH"> F  </i>
    <i type="logical" name="LMETAGGA"> F  </i>
   </separator>
   <separator name="electronic convergence" >
    <i type="int" name="NELM">    60</i>
    <i type="int" name="NELMDL">    -5</i>
    <i type="int" name="NELMIN">     2</i>
    <i name="ENINI">    350.00000000</i>
    <separator name="electronic convergence detail" >
     <i type="logical" name="LDIAG"> T  </i>
     <i type="logical" name="LSUBROT"> F  </i>
     <i name="WEIMIN">      0.00100000</i>
     <i name="EBREAK">      0.00000001</i>
     <i name="DEPER">      0.30000000</i>
     <i type="int" name="NRMM">     4</i>
     <i name="TIME">      0.40000000</i>
    </separator>
   </separator>
   <separator name="electronic mixer" >
    <i name="AMIX">      0.40000000</i>
    <i name="BMIX">      1.00000000</i>
    <i name="AMIN">      0.10000000</i>
    <i name="AMIX_MAG">      1.60000000</i>
    <i name="BMIX_MAG">      1.00000000</i>
    <separator name="electronic mixer details" >
     <i type="int" name="IMIX">     4</i>
     <i type="int" name="MAXMIX">   -45</i>
     <i name="WC">    100.00000000</i>
     <i type="int" name="INIMIX">     1</i>
     <i type="int" name="MIXPRE">     1</i>
     <i type="int" name="MREMOVE">     5</i>
    </separator>
   </separator>
   <separator name="electronic dipolcorrection" >
    <i type="logical" name="LDIPOL"> F  </i>
    <i type="logical" name="LMONO"> F  </i>
    <i type="int" name="IDIPOL">     0</i>
    <i name="EPSILON">      1.00000000</i>
    <v name="DIPOL">   -100.00000000   -100.00000000   -100.00000000</v>
    <i name="EFIELD">      0.00000000</i>
   </separator>
  </separator>
  <separator name="grids" >
   <i type="int" name="NGX">    24</i>
   <i type="int" name="NGY">    40</i>
   <i type="int" name="NGZ">    98</i>
   <i type="int" name="NGXF">    48</i>
   <i type="int" name="NGYF">    80</i>
   <i type="int" name="NGZF">   196</i>
   <i type="logical" name="ADDGRID"> F  </i>
  </separator>
  <separator name="ionic" >
   <i type="int" name="NSW">  1000</i>
   <i type="int" name="IBRION">     2</i>
   <i type="int" name="ISIF">     2</i>
   <i name="PSTRESS">      0.00000000</i>
   <i name="EDIFFG">      0.00001000</i>
   <i type="int" name="NFREE">     1</i>
   <i name="POTIM">      0.50000000</i>
   <i name="SMASS">     -3.00000000</i>
   <i name="SCALEE">      1.00000000</i>
  </separator>
  <separator name="ionic md" >
   <i name="TEBEG">      0.00010000</i>
   <i name="TEEND">      0.00010000</i>
   <i type="int" name="NBLOCK">     1</i>
   <i type="int" name="KBLOCK">  1000</i>
   <i type="int" name="NPACO">   256</i>
   <i name="APACO">     16.00000000</i>
  </separator>
  <separator name="symmetry" >
   <i type="int" name="ISYM">     0</i>
   <i name="SYMPREC">      0.00001000</i>
  </separator>
  <separator name="dos" >
   <i type="logical" name="LORBIT"> F  </i>
   <v name="RWIGS">     -1.00000000     -1.00000000</v>
   <i type="int" name="NEDOS">   301</i>
   <i name="EMIN">     10.00000000</i>
   <i name="EMAX">    -10.00000000</i>
   <i name="EFERMI">      0.00000000</i>
  </separator>
  <separator name="writing" >
   <i type="int" name="NWRITE">     3</i>
   <i type="logical" name="LWAVE"> F  </i>
   <i type="logical" name="LCHARG"> F  </i>
   <i type="logical" name="LPARD"> F  </i>
   <i type="logical" name="LVTOT"> F  </i>
   <i type="logical" name="LVHAR"> F  </i>
   <i type="logical" name="LELF"> F  </i>
   <i type="logical" name="LOPTICS"> F  </i>
   <v name="STM">      0.00000000      0.00000000      0.00000000      0.00000000      0.00000000      0.00000000      0.00000000</v>
  </separator>
  <separator name="performance" >
   <i type="int" name="NPAR">     8</i>
   <i type="int" name="NSIM">     4</i>
   <i type="int" name="NBLK">    -1</i>
   <i type="logical" name="LPLANE"> T  </i>
   <i type="logical" name="LSCALAPACK"> T  </i>
   <i type="logical" name="LSCAAWARE"> F  </i>
   <i type="logical" name="LSCALU"> F  </i>
   <i type="logical" name="LASYNC"> F  </i>
   <i type="logical" name="LORBITALREAL"> F  </i>
  </separator>
  <separator name="miscellaneous" >
   <i type="int" name="IDIOT">     3</i>
   <i type="logical" name="LMUSIC"> F  </i>
   <v name="POMASS">    127.60000000     95.94000000</v>
   <v name="DARWINR">      0.00000000      0.00000000</v>
   <v name="DARWINV">      1.00000000      1.00000000</v>
   <i type="logical" name="LCORR"> T  </i>
  </separator>
  <i type="logical" name="GGA_COMPAT"> T  </i>
  <i type="logical" name="LBERRY"> F  </i>
  <i type="int" name="ICORELEVEL">     0</i>
  <i type="logical" name="LDAU"> F  </i>
  <i type="int" name="I_CONSTRAINED_M">     0</i>
  <separator name="electronic exchange-correlation" >
   <i type="string" name="GGA">--</i>
   <i type="int" name="VOSKOWN">     0</i>
   <i type="logical" name="LHFCALC"> F  </i>
   <i type="string" name="PRECFOCK"></i>
   <i type="logical" name="LSYMGRAD"> F  </i>
   <i type="logical" name="LHFONE"> F  </i>
   <i type="logical" name="LRHFCALC"> F  </i>
   <i type="logical" name="LTHOMAS"> F  </i>
   <i type="logical" name="LMODELHF"> F  </i>
   <i name="ENCUT4O">     -1.00000000</i>
   <i type="int" name="EXXOEP">     0</i>
   <i type="int" name="FOURORBIT">     0</i>
   <i name="AEXX">      0.00000000</i>
   <i name="HFALPHA">      0.00000000</i>
   <i name="MCALPHA">      0.00000000</i>
   <i name="ALDAX">      1.00000000</i>
   <i name="AGGAX">      1.00000000</i>
   <i name="ALDAC">      1.00000000</i>
   <i name="AGGAC">      1.00000000</i>
   <i type="int" name="NKREDX">     1</i>
   <i type="int" name="NKREDY">     1</i>
   <i type="int" name="NKREDZ">     1</i>
   <i type="logical" name="SHIFTRED"> F  </i>
   <i type="logical" name="ODDONLY"> F  </i>
   <i type="logical" name="EVENONLY"> F  </i>
   <i type="int" name="LMAXFOCK">     0</i>
   <i type="int" name="NMAXFOCKAE">     0</i>
   <i type="logical" name="LFOCKAEDFT"> F  </i>
   <i name="HFSCREEN">      0.00000000</i>
   <i name="HFSCREENC">      0.00000000</i>
   <i type="int" name="NBANDSGWLOW">     0</i>
  </separator>
  <separator name="vdW DFT" >
   <i type="logical" name="LUSE_VDW"> F  </i>
   <i name="Zab_VDW">     -0.84910000</i>
   <i name="PARAM1">      0.12340000</i>
   <i name="PARAM2">      1.00000000</i>
   <i name="PARAM3">      0.00000000</i>
  </separator>
  <separator name="model GW" >
   <i type="int" name="MODEL_GW">     0</i>
   <i name="MODEL_EPS0">     35.17173760</i>
   <i name="MODEL_ALPHA">      1.00000000</i>
  </separator>
  <separator name="linear response parameters" >
   <i type="logical" name="LEPSILON"> F  </i>
   <i type="logical" name="LRPA"> F  </i>
   <i type="logical" name="LNABLA"> F  </i>
   <i type="logical" name="LVEL"> F  </i>
   <i type="int" name="KINTER">     0</i>
   <i name="CSHIFT">      0.10000000</i>
   <i name="OMEGAMAX">     -1.00000000</i>
   <i name="DEG_THRESHOLD">      0.00200000</i>
  </separator>
  <separator name="orbital magnetization" >
   <i type="logical" name="NUCIND"> F  </i>
   <v name="MAGPOS">      0.00000000      0.00000000      0.00000000</v>
   <i type="logical" name="LNICSALL"> T  </i>
   <i type="logical" name="ORBITALMAG"> F  </i>
   <i type="logical" name="LMAGBLOCH"> F  </i>
   <i type="logical" name="LCHIMAG"> F  </i>
   <i type="logical" name="LGAUGE"> T  </i>
   <i type="int" name="MAGATOM">     0</i>
   <v name="MAGDIPOL">      0.00000000      0.00000000      0.00000000</v>
   <v name="AVECCONST">      0.00000000      0.00000000      0.00000000</v>
  </separator>
  <separator name="response functions" >
   <i type="logical" name="LADDER"> F  </i>
   <i type="logical" name="LFXC"> F  </i>
   <i type="logical" name="LHARTREE"> T  </i>
   <i type="int" name="IBSE">     0</i>
   <i type="logical" name="LTCTE"> F  </i>
   <i type="logical" name="LTETE"> F  </i>
   <i type="logical" name="LTRIPLET"> F  </i>
   <i type="logical" name="LFXCEPS"> F  </i>
   <i type="logical" name="LFXHEG"> F  </i>
   <i type="logical" name="L2ORDER"> F  </i>
   <i type="logical" name="LUSEW"> F  </i>
   <i name="ENCUTGW">     -2.00000000</i>
   <i name="ENCUTGWSOFT">     -2.00000000</i>
   <i name="ENCUTLF">     -1.00000000</i>
   <i type="int" name="LMAXMP2">    -1</i>
   <i name="SCISSOR">      0.00000000</i>
   <i type="int" name="NOMEGA">     0</i>
   <i type="int" name="NOMEGAR">     0</i>
   <i type="int" name="NBANDSGW">    -1</i>
   <i type="int" name="NBANDSO">    -1</i>
   <i type="int" name="NBANDSV">    -1</i>
   <i type="int" name="NELM">     1</i>
   <i type="int" name="DIM">     3</i>
   <i type="int" name="ANTIRES">     0</i>
   <i name="OMEGAMAX">    -30.00000000</i>
   <i name="OMEGAMIN">    -30.00000000</i>
   <i name="OMEGATL">   -200.00000000</i>
   <i type="int" name="OMEGAGRID">     0</i>
   <i name="CSHIFT">     -0.10000000</i>
   <i type="logical" name="SELFENERGY"> F  </i>
   <i type="logical" name="LSPECTRAL"> F  </i>
   <i type="logical" name="ODDONLYGW"> F  </i>
   <i type="logical" name="EVENONLYGW"> F  </i>
   <i type="int" name="NKREDLFX">     1</i>
   <i type="int" name="NKREDLFY">     1</i>
   <i type="int" name="NKREDLFZ">     1</i>
   <i type="int" name="MAXMEM">  1800</i>
   <i type="int" name="TELESCOPE">     0</i>
   <i type="int" name="TAUPAR">     1</i>
  </separator>
  <separator name="External order field" >
   <i name="OFIELD_KAPPA">      0.00000000</i>
   <v name="OFIELD_K">      0.00000000      0.00000000      0.00000000</v>
   <i name="OFIELD_Q6_NEAR">      0.00000000</i>
   <i name="OFIELD_Q6_FAR">      0.00000000</i>
   <i name="OFIELD_A">      0.00000000</i>
  </separator>
 </parameters>
 <atominfo>
  <atoms>       6 </atoms>
  <types>       2 </types>
  <array name="atoms" >
   <dimension dim="1">ion</dimension>
   <field type="string">element</field>
   <field type="int">atomtype</field>
   <set>
    <rc><c>Te</c><c>   1</c></rc>
    <rc><c>Te</c><c>   1</c></rc>
    <rc><c>Te</c><c>   1</c></rc>
    <rc><c>Te</c><c>   1</c></rc>
    <rc><c>Mo</c><c>   2</c></rc>
    <rc><c>Mo</c><c>   2</c></rc>
   </set>
  </array>
  <array name="atomtypes" >
   <dimension dim="1">type</dimension>
   <field type="int">atomspertype</field>
   <field type="string">element</field>
   <field>mass</field>
   <field>valence</field>
   <field type="string">pseudopotential</field>
   <set>
    <rc><c>   4</c><c>Te</c><c>    127.60000000</c><c>      6.00000000</c><c>  PAW_PBE Te 08Apr2002                  </c></rc>
    <rc><c>   2</c><c>Mo</c><c>     95.94000000</c><c>      6.00000000</c><c>  PAW_PBE Mo 08Apr2002                  </c></rc>
   </set>
  </array>
 </atominfo>
 <structure name="initialpos" >
  <crystal>
   <varray name="basis" >
    <v>       3.45200000       0.00000000       0.00000000 </v>
    <v>       0.00000000       6.36800000       0.00000000 </v>
    <v>       0.00000000       0.00000000      16.00000000 </v>
   </varray>
   <i name="volume">    351.71737600 </i>
   <varray name="rec_basis" >
    <v>       0.28968714       0.00000000       0.00000000 </v>
    <v>       0.00000000       0.15703518       0.00000000 </v>
    <v>       0.00000000       0.00000000       0.06250000 </v>
   </varray>
  </crystal>
  <varray name="positions" >
   <v>       0.50000000       0.10163317       0.12913313 </v>
   <v>       0.50000000       0.74915672       0.90758437 </v>
   <v>       0.00000000       0.25741049       0.87086563 </v>
   <v>       0.00000000       0.60988065       0.09241625 </v>
   <v>       0.50000000       0.36059673       0.99406750 </v>
   <v>       0.00000000       0.99843907       0.00593312 </v>
  </varray>
 </structure>
 <calculation>
  <scstep>
   <time name="dav">    3.15    3.16</time>
   <time name="total">    3.20    3.21</time>
   <energy>
    <i name="alphaZ">     25.19170377 </i>
    <i name="ewald">   1706.63235767 </i>
    <i name="hartreedc">  -2986.48471468 </i>
    <i name="XCdc">   -233.78894118 </i>
    <i name="pawpsdc">   1362.14282323 </i>
    <i name="pawaedc">  -1065.87210056 </i>
    <i name="eentropy">     -0.00113764 </i>
    <i name="bandstr">     50.10475082 </i>
    <i name="atom">   1328.10454569 </i>
    <i name="e_fr_energy">    186.02928712 </i>
    <i name="e_wo_entrp">    186.03042476 </i>
    <i name="e_0_energy">    186.02985594 </i>
   </energy>
  </scstep>
  <scstep>
   <time name="dav">    3.90    3.90</time>
   <time name="total">    3.97    3.97</time>
   <energy>
    <i name="e_fr_energy">    -18.22377876 </i>
    <i name="e_wo_entrp">    -18.22349092 </i>
    <i name="e_0_energy">    -18.22363484 </i>
   </energy>
  </scstep>
  <scstep>
   <time name="dav">    3.59    3.59</time>
   <time name="total">    3.64    3.64</time>
   <energy>
    <i name="e_fr_energy">    -36.73850009 </i>
    <i name="e_wo_entrp">    -36.73810400 </i>
    <i name="e_0_energy">    -36.73830205 </i>
   </energy>
  </scstep>
  <scstep>
   <time name="dav">    4.14    4.14</time>
   <time name="total">    4.19    4.19</time>
   <energy>
    <i name="e_fr_energy">    -37.40675532 </i>
    <i name="e_wo_entrp">    -37.40639691 </i>
    <i name="e_0_energy">    -37.40657611 </i>
   </energy>
  </scstep>
  <scstep>
   <time name="dav">    3.81    3.81</time>
   <time name="total">    4.01    4.01</time>
   <energy>
    <i name="e_fr_energy">    -37.41711137 </i>
    <i name="e_wo_entrp">    -37.41675438 </i>
    <i name="e_0_energy">    -37.41693288 </i>
   </energy>
  </scstep>
  <scstep>
   <time name="dav">    3.70    3.71</time>
   <time name="total">    3.90    3.92</time>
   <energy>
    <i name="e_fr_energy">    -36.47852384 </i>
    <i name="e_wo_entrp">    -36.47814699 </i>
    <i name="e_0_energy">    -36.47833542 </i>
   </energy>
  </scstep>
  <scstep>
   <time name="dav">    3.50    3.51</time>
   <time name="total">    3.70    3.70</time>
   <energy>
    <i name="e_fr_energy">    -36.50377639 </i>
    <i name="e_wo_entrp">    -36.50329478 </i>
    <i name="e_0_energy">    -36.50353559 </i>
   </energy>
  </scstep>
  <scstep>
   <time name="dav">    3.65    3.65</time>
   <time name="total">    3.84    3.86</time>
   <energy>
    <i name="e_fr_energy">    -35.99854884 </i>
    <i name="e_wo_entrp">    -35.99812613 </i>
    <i name="e_0_energy">    -35.99833749 </i>
   </energy>
  </scstep>
  <scstep>
   <time name="dav">    4.02    4.02</time>
   <time name="total">    4.21    4.22</time>
   <energy>
    <i name="e_fr_energy">    -35.99007927 </i>
    <i name="e_wo_entrp">    -35.98975814 </i>
    <i name="e_0_energy">    -35.98991870 </i>
   </energy>
  </scstep>
  <scstep>
   <time name="dav">    3.56    3.56</time>
   <time name="total">    3.75    3.75</time>
   <energy>
    <i name="e_fr_energy">    -35.98422986 </i>
    <i name="e_wo_entrp">    -35.98389397 </i>
    <i name="e_0_energy">    -35.98406191 </i>
   </energy>
  </scstep>
  <scstep>
   <time name="dav">    3.77    3.77</time>
   <time name="total">    3.96    3.96</time>
   <energy>
    <i name="e_fr_energy">    -35.98299955 </i>
    <i name="e_wo_entrp">    -35.98268645 </i>
    <i name="e_0_energy">    -35.98284300 </i>
   </energy>
  </scstep>
  <scstep>
   <time name="dav">    3.90    3.90</time>
   <time name="total">    4.09    4.09</time>
   <energy>
    <i name="e_fr_energy">    -35.98246567 </i>
    <i name="e_wo_entrp">    -35.98214695 </i>
    <i name="e_0_energy">    -35.98230631 </i>
   </energy>
  </scstep>
  <scstep>
   <time name="dav">    3.91    3.94</time>
   <time name="total">    4.11    4.14</time>
   <energy>
    <i name="e_fr_energy">    -35.98230916 </i>
    <i name="e_wo_entrp">    -35.98198748 </i>
    <i name="e_0_energy">    -35.98214832 </i>
   </energy>
  </scstep>
  <scstep>
   <time name="dav">    3.40    3.40</time>
   <time name="total">    3.59    3.59</time>
   <energy>
    <i name="e_fr_energy">    -35.98208630 </i>
    <i name="e_wo_entrp">    -35.98176819 </i>
    <i name="e_0_energy">    -35.98192725 </i>
   </energy>
  </scstep>
  <scstep>
   <time name="dav">    3.44    3.44</time>
   <time name="total">    3.63    3.64</time>
   <energy>
    <i name="e_fr_energy">    -35.98183849 </i>
    <i name="e_wo_entrp">    -35.98152553 </i>
    <i name="e_0_energy">    -35.98168201 </i>
   </energy>
  </scstep>
  <scstep>
   <time name="dav">    3.92    3.92</time>
   <time name="total">    4.12    4.12</time>
   <energy>
    <i name="e_fr_energy">    -35.98188020 </i>
    <i name="e_wo_entrp">    -35.98156771 </i>
    <i name="e_0_energy">    -35.98172396 </i>
   </energy>
  </scstep>
  <scstep>
   <time name="dav">    3.80    3.80</time>
   <time name="total">    4.00    4.00</time>
   <energy>
    <i name="e_fr_energy">    -35.98204030 </i>
    <i name="e_wo_entrp">    -35.98172704 </i>
    <i name="e_0_energy">    -35.98188367 </i>
   </energy>
  </scstep>
  <scstep>
   <time name="dav">    3.35    3.35</time>
   <time name="total">    3.55    3.55</time>
   <energy>
    <i name="e_fr_energy">    -35.98215668 </i>
    <i name="e_wo_entrp">    -35.98184370 </i>
    <i name="e_0_energy">    -35.98200019 </i>
   </energy>
  </scstep>
  <scstep>
   <time name="dav">    3.31    3.31</time>
   <time name="total">    3.50    3.51</time>
   <energy>
    <i name="e_fr_energy">    -35.98223639 </i>
    <i name="e_wo_entrp">    -35.98192348 </i>
    <i name="e_0_energy">    -35.98207994 </i>
   </energy>
  </scstep>
  <scstep>
   <time name="dav">    3.04    3.04</time>
   <time name="total">    3.24    3.24</time>
   <energy>
    <i name="e_fr_energy">    -35.98228885 </i>
    <i name="e_wo_entrp">    -35.98197597 </i>
    <i name="e_0_energy">    -35.98213241 </i>
   </energy>
  </scstep>
  <scstep>
   <time name="dav">    2.76    2.76</time>
   <time name="total">    2.97    2.97</time>
   <energy>
    <i name="e_fr_energy">    -35.98230232 </i>
    <i name="e_wo_entrp">    -35.98198937 </i>
    <i name="e_0_energy">    -35.98214585 </i>
   </energy>
  </scstep>
  <scstep>
   <time name="dav">    2.81    2.83</time>
   <time name="total">    3.00    3.03</time>
   <energy>
    <i name="e_fr_energy">    -35.98230887 </i>
    <i name="e_wo_entrp">    -35.98199591 </i>
    <i name="e_0_energy">    -35.98215239 </i>
   </energy>
  </scstep>
  <scstep>
   <time name="dav">    2.66    2.66</time>
   <time name="total">    2.86    2.86</time>
   <energy>
    <i name="e_fr_energy">    -35.98230996 </i>
    <i name="e_wo_entrp">    -35.98199706 </i>
    <i name="e_0_energy">    -35.98215351 </i>
   </energy>
  </scstep>
  <scstep>
   <time name="dav">    2.54    2.54</time>
   <time name="total">    2.62    2.63</time>
   <energy>
    <i name="alphaZ">     25.19170377 </i>
    <i name="ewald">   1706.63235767 </i>
    <i name="hartreedc">  -3004.06758014 </i>
    <i name="XCdc">   -232.33198165 </i>
    <i name="pawpsdc">   2699.60303980 </i>
    <i name="pawaedc">  -2406.04747721 </i>
    <i name="eentropy">     -0.00031290 </i>
    <i name="bandstr">   -153.06660509 </i>
    <i name="atom">   1328.10454569 </i>
    <i name="e_fr_energy">    -35.98231006 </i>
    <i name="e_wo_entrp">    -35.98199716 </i>
    <i name="e_0_energy">    -35.98215361 </i>
   </energy>
  </scstep>
  <structure>
   <crystal>
    <varray name="basis" >
     <v>       3.45200000       0.00000000       0.00000000 </v>
     <v>       0.00000000       6.36800000       0.00000000 </v>
     <v>       0.00000000       0.00000000      16.00000000 </v>
    </varray>
    <i name="volume">    351.71737600 </i>
    <varray name="rec_basis" >
     <v>       0.28968714       0.00000000       0.00000000 </v>
     <v>       0.00000000       0.15703518       0.00000000 </v>
     <v>       0.00000000       0.00000000       0.06250000 </v>
    </varray>
   </crystal>
   <varray name="positions" >
    <v>       0.50000000       0.10163317       0.12913313 </v>
    <v>       0.50000000       0.74915672       0.90758437 </v>
    <v>       0.00000000       0.25741049       0.87086563 </v>
    <v>       0.00000000       0.60988065       0.09241625 </v>
    <v>       0.50000000       0.36059673       0.99406750 </v>
    <v>       0.00000000       0.99843907       0.00593312 </v>
   </varray>
  </structure>
  <varray name="forces" >
   <v>       0.00000001      -0.00745585       0.00695222 </v>
   <v>      -0.00000000      -0.00446675      -0.01000400 </v>
   <v>       0.00000001       0.00715470      -0.00661078 </v>
   <v>      -0.00000001       0.00448558       0.01005397 </v>
   <v>       0.00000001      -0.01567083      -0.01527021 </v>
   <v>      -0.00000001       0.01595314       0.01487880 </v>
  </varray>
  <varray name="stress" >
   <v>      -1.24548939      -0.00000011       0.00000174 </v>
   <v>      -0.00000007      -0.87906496      -0.05771213 </v>
   <v>       0.00000161      -0.05771223      -0.69511513 </v>
  </varray>
  <energy>
   <i name="e_fr_energy">    -35.98231006 </i>
   <i name="e_wo_entrp">    -35.98215361 </i>
   <i name="e_0_energy">     -0.00031290 </i>
  </energy>
  <time name="totalsc">   89.32   89.48</time>
 </calculation>
 <calculation>
  <scstep>
   <time name="dav">    3.11    3.11</time>
   <time name="total">    3.25    3.26</time>
   <energy>
    <i name="alphaZ">     25.19170377 </i>
    <i name="ewald">   1706.07649511 </i>
    <i name="hartreedc">  -3003.52548453 </i>
    <i name="XCdc">   -232.33491640 </i>
    <i name="pawpsdc">   2699.59700490 </i>
    <i name="pawaedc">  -2406.04145697 </i>
    <i name="eentropy">     -0.00028714 </i>
    <i name="bandstr">   -153.04994667 </i>
    <i name="atom">   1328.10454569 </i>
    <i name="e_fr_energy">    -35.98234223 </i>
    <i name="e_wo_entrp">    -35.98205509 </i>
    <i name="e_0_energy">    -35.98219866 </i>
   </energy>
  </scstep>
  <scstep>
   <time name="dav">    3.72    3.72</time>
   <time name="total">    3.92    3.92</time>
   <energy>
    <i name="e_fr_energy">    -35.98234806 </i>
    <i name="e_wo_entrp">    -35.98206052 </i>
    <i name="e_0_energy">    -35.98220429 </i>
   </energy>
  </scstep>
  <scstep>
   <time name="dav">    3.21    3.21</time>
   <time name="total">    3.30    3.30</time>
   <energy>
    <i name="alphaZ">     25.19170377 </i>
    <i name="ewald">   1706.07649511 </i>
    <i name="hartreedc">  -3003.52398937 </i>
    <i name="XCdc">   -232.33454892 </i>
    <i name="pawpsdc">   2698.97659956 </i>
    <i name="pawaedc">  -2405.42058779 </i>
    <i name="eentropy">     -0.00028735 </i>
    <i name="bandstr">   -153.05227804 </i>
    <i name="atom">   1328.10454569 </i>
    <i name="e_fr_energy">    -35.98234736 </i>
    <i name="e_wo_entrp">    -35.98206001 </i>
    <i name="e_0_energy">    -35.98220368 </i>
   </energy>
  </scstep>
  <structure>
   <crystal>
    <varray name="basis" >
     <v>       3.45200000       0.00000000       0.00000000 </v>
     <v>       0.00000000       6.36800000       0.00000000 </v>
     <v>       0.00000000       0.00000000      16.00000000 </v>
    </varray>
    <i name="volume">    351.71737600 </i>
    <varray name="rec_basis" >
     <v>       0.28968714       0.00000000       0.00000000 </v>
     <v>       0.00000000       0.15703518       0.00000000 </v>
     <v>       0.00000000       0.00000000       0.06250000 </v>
    </varray>
   </crystal>
   <varray name="positions" >
    <v>       0.50000000       0.10157668       0.12915409 </v>
    <v>       0.50000000       0.74912288       0.90755421 </v>
    <v>       0.00000000       0.25746469       0.87084569 </v>
    <v>      -0.00000000       0.60991464       0.09244656 </v>
    <v>       0.50000000       0.36047801       0.99402146 </v>
    <v>      -0.00000000       0.99855993       0.00597799 </v>
   </varray>
  </structure>
  <varray name="forces" >
   <v>       0.00000009      -0.00226472       0.00770117 </v>
   <v>       0.00000017      -0.00029724      -0.00191978 </v>
   <v>      -0.00000019       0.00209504      -0.00781389 </v>
   <v>      -0.00000014       0.00034425       0.00184809 </v>
   <v>       0.00000020      -0.00326899       0.00261070 </v>
   <v>      -0.00000014       0.00339166      -0.00242629 </v>
  </varray>
  <varray name="stress" >
   <v>      -1.23589649      -0.00000272       0.00000065 </v>
   <v>      -0.00000270      -0.97712130      -0.02976971 </v>
   <v>       0.00000070      -0.02976941      -0.78339344 </v>
  </varray>
  <energy>
   <i name="e_fr_energy">    -35.98234736 </i>
   <i name="e_wo_entrp">    -35.98220368 </i>
   <i name="e_0_energy">     -0.00028735 </i>
  </energy>
  <time name="totalsc">   12.15   12.16</time>
 </calculation>
 <calculation>
  <scstep>
   <time name="dav">    3.09    3.09</time>
   <time name="total">    3.24    3.24</time>
   <energy>
    <i name="alphaZ">     25.19170377 </i>
    <i name="ewald">   1705.97958070 </i>
    <i name="hartreedc">  -3003.43452475 </i>
    <i name="XCdc">   -232.33507573 </i>
    <i name="pawpsdc">   2699.00290173 </i>
    <i name="pawaedc">  -2405.44678117 </i>
    <i name="eentropy">     -0.00028338 </i>
    <i name="bandstr">   -153.04441424 </i>
    <i name="atom">   1328.10454569 </i>
    <i name="e_fr_energy">    -35.98234739 </i>
    <i name="e_wo_entrp">    -35.98206401 </i>
    <i name="e_0_energy">    -35.98220570 </i>
   </energy>
  </scstep>
  <scstep>
   <time name="dav">    3.25    3.26</time>
   <time name="total">    3.34    3.34</time>
   <energy>
    <i name="alphaZ">     25.19170377 </i>
    <i name="ewald">   1705.97958070 </i>
    <i name="hartreedc">  -3003.43087627 </i>
    <i name="XCdc">   -232.33488335 </i>
    <i name="pawpsdc">   2698.91320181 </i>
    <i name="pawaedc">  -2405.35697083 </i>
    <i name="eentropy">     -0.00028320 </i>
    <i name="bandstr">   -153.04836554 </i>
    <i name="atom">   1328.10454569 </i>
    <i name="e_fr_energy">    -35.98234724 </i>
    <i name="e_wo_entrp">    -35.98206404 </i>
    <i name="e_0_energy">    -35.98220564 </i>
   </energy>
  </scstep>
  <structure>
   <crystal>
    <varray name="basis" >
     <v>       3.45200000       0.00000000       0.00000000 </v>
     <v>       0.00000000       6.36800000       0.00000000 </v>
     <v>       0.00000000       0.00000000      16.00000000 </v>
    </varray>
    <i name="volume">    351.71737600 </i>
    <varray name="rec_basis" >
     <v>       0.28968714       0.00000000       0.00000000 </v>
     <v>       0.00000000       0.15703518       0.00000000 </v>
     <v>       0.00000000       0.00000000       0.06250000 </v>
    </varray>
   </crystal>
   <varray name="positions" >
    <v>       0.50000000       0.10156683       0.12915774 </v>
    <v>       0.50000000       0.74911698       0.90754895 </v>
    <v>       0.00000000       0.25747414       0.87084222 </v>
    <v>      -0.00000000       0.60992056       0.09245185 </v>
    <v>       0.50000000       0.36045731       0.99401343 </v>
    <v>      -0.00000000       0.99858100       0.00598581 </v>
   </varray>
  </structure>
  <varray name="forces" >
   <v>      -0.00000020      -0.00138177       0.00789309 </v>
   <v>      -0.00000003       0.00032042      -0.00065329 </v>
   <v>       0.00000002       0.00126100      -0.00805416 </v>
   <v>      -0.00000010      -0.00033552       0.00052764 </v>
   <v>       0.00000007      -0.00038016       0.00655571 </v>
   <v>       0.00000024       0.00051604      -0.00626899 </v>
  </varray>
  <varray name="stress" >
   <v>      -1.22622951      -0.00000212       0.00000027 </v>
   <v>      -0.00000212      -0.99202821      -0.02325636 </v>
   <v>       0.00000020      -0.02325635      -0.80239424 </v>
  </varray>
  <energy>
   <i name="e_fr_energy">    -35.98234724 </i>
   <i name="e_wo_entrp">    -35.98220564 </i>
   <i name="e_0_energy">     -0.00028320 </i>
  </energy>
  <time name="totalsc">    8.25    8.27</time>
 </calculation>
 <calculation>
  <scstep>
   <time name="dav">    3.13    3.15</time>
   <time name="total">    3.27    3.30</time>
   <energy>
    <i name="alphaZ">     25.19170377 </i>
    <i name="ewald">   1705.53218889 </i>
    <i name="hartreedc">  -3003.00267298 </i>
    <i name="XCdc">   -232.33735259 </i>
    <i name="pawpsdc">   2698.91630888 </i>
    <i name="pawaedc">  -2405.36004278 </i>
    <i name="eentropy">     -0.00028041 </i>
    <i name="bandstr">   -153.02675074 </i>
    <i name="atom">   1328.10454569 </i>
    <i name="e_fr_energy">    -35.98235228 </i>
    <i name="e_wo_entrp">    -35.98207187 </i>
    <i name="e_0_energy">    -35.98221208 </i>
   </energy>
  </scstep>
  <scstep>
   <time name="dav">    3.65    3.65</time>
   <time name="total">    3.85    3.85</time>
   <energy>
    <i name="e_fr_energy">    -35.98235282 </i>
    <i name="e_wo_entrp">    -35.98207278 </i>
    <i name="e_0_energy">    -35.98221280 </i>
   </energy>
  </scstep>
  <scstep>
   <time name="dav">    2.66    2.66</time>
   <time name="total">    2.75    2.75</time>
   <energy>
    <i name="alphaZ">     25.19170377 </i>
    <i name="ewald">   1705.53218889 </i>
    <i name="hartreedc">  -3003.00237157 </i>
    <i name="XCdc">   -232.33712413 </i>
    <i name="pawpsdc">   2698.46204902 </i>
    <i name="pawaedc">  -2404.90503661 </i>
    <i name="eentropy">     -0.00028016 </i>
    <i name="bandstr">   -153.02802736 </i>
    <i name="atom">   1328.10454569 </i>
    <i name="e_fr_energy">    -35.98235246 </i>
    <i name="e_wo_entrp">    -35.98207231 </i>
    <i name="e_0_energy">    -35.98221238 </i>
   </energy>
  </scstep>
  <structure>
   <crystal>
    <varray name="basis" >
     <v>       3.45200000       0.00000000       0.00000000 </v>
     <v>       0.00000000       6.36800000       0.00000000 </v>
     <v>       0.00000000       0.00000000      16.00000000 </v>
    </varray>
    <i name="volume">    351.71737600 </i>
    <varray name="rec_basis" >
     <v>       0.28968714       0.00000000       0.00000000 </v>
     <v>       0.00000000       0.15703518       0.00000000 </v>
     <v>       0.00000000       0.00000000       0.06250000 </v>
    </varray>
   </crystal>
   <varray name="positions" >
    <v>       0.50000000       0.10154522       0.12918637 </v>
    <v>       0.50000000       0.74911304       0.90754116 </v>
    <v>       0.00000000       0.25749437       0.87081328 </v>
    <v>      -0.00000000       0.60992441       0.09245928 </v>
    <v>       0.50000000       0.36043168       0.99402510 </v>
    <v>       0.00000000       0.99860811       0.00597481 </v>
   </varray>
  </structure>
  <varray name="forces" >
   <v>       0.00000001      -0.00175226       0.00198401 </v>
   <v>       0.00000010       0.00019490       0.00090495 </v>
   <v>      -0.00000001       0.00164169      -0.00205135 </v>
   <v>       0.00000000       0.00003563      -0.00085802 </v>
   <v>      -0.00000009       0.00073534       0.00188294 </v>
   <v>       0.00000000      -0.00085530      -0.00186252 </v>
  </varray>
  <varray name="stress" >
   <v>      -1.28649929      -0.00000043       0.00000001 </v>
   <v>      -0.00000044      -1.04406825      -0.02796876 </v>
   <v>      -0.00000003      -0.02796883      -0.94444236 </v>
  </varray>
  <energy>
   <i name="e_fr_energy">    -35.98235246 </i>
   <i name="e_wo_entrp">    -35.98221238 </i>
   <i name="e_0_energy">     -0.00028016 </i>
  </energy>
  <time name="totalsc">   11.55   11.58</time>
 </calculation>
 <calculation>
  <scstep>
   <time name="dav">    3.17    3.17</time>
   <time name="total">    3.32    3.32</time>
   <energy>
    <i name="alphaZ">     25.19170377 </i>
    <i name="ewald">   1705.38855614 </i>
    <i name="hartreedc">  -3002.86356990 </i>
    <i name="XCdc">   -232.33775272 </i>
    <i name="pawpsdc">   2698.41627294 </i>
    <i name="pawaedc">  -2404.85887983 </i>
    <i name="eentropy">     -0.00027909 </i>
    <i name="bandstr">   -153.02294925 </i>
    <i name="atom">   1328.10454569 </i>
    <i name="e_fr_energy">    -35.98235226 </i>
    <i name="e_wo_entrp">    -35.98207318 </i>
    <i name="e_0_energy">    -35.98221272 </i>
   </energy>
  </scstep>
  <scstep>
   <time name="dav">    3.58    3.58</time>
   <time name="total">    3.66    3.66</time>
   <energy>
    <i name="alphaZ">     25.19170377 </i>
    <i name="ewald">   1705.38855614 </i>
    <i name="hartreedc">  -3002.86625260 </i>
    <i name="XCdc">   -232.33776335 </i>
    <i name="pawpsdc">   2698.26197371 </i>
    <i name="pawaedc">  -2404.70436607 </i>
    <i name="eentropy">     -0.00027914 </i>
    <i name="bandstr">   -153.02047050 </i>
    <i name="atom">   1328.10454569 </i>
    <i name="e_fr_energy">    -35.98235234 </i>
    <i name="e_wo_entrp">    -35.98207320 </i>
    <i name="e_0_energy">    -35.98221277 </i>
   </energy>
  </scstep>
  <structure>
   <crystal>
    <varray name="basis" >
     <v>       3.45200000       0.00000000       0.00000000 </v>
     <v>       0.00000000       6.36800000       0.00000000 </v>
     <v>       0.00000000       0.00000000      16.00000000 </v>
    </varray>
    <i name="volume">    351.71737600 </i>
    <varray name="rec_basis" >
     <v>       0.28968714       0.00000000       0.00000000 </v>
     <v>       0.00000000       0.15703518       0.00000000 </v>
     <v>       0.00000000       0.00000000       0.06250000 </v>
    </varray>
   </crystal>
   <varray name="positions" >
    <v>       0.50000000       0.10153828       0.12919556 </v>
    <v>       0.50000000       0.74911177       0.90753866 </v>
    <v>       0.00000000       0.25750087       0.87080399 </v>
    <v>      -0.00000000       0.60992565       0.09246167 </v>
    <v>       0.50000000       0.36042345       0.99402885 </v>
    <v>       0.00000000       0.99861681       0.00597128 </v>
   </varray>
  </structure>
  <varray name="forces" >
   <v>       0.00000017      -0.00202099       0.00004597 </v>
   <v>       0.00000010       0.00067082       0.00146082 </v>
   <v>       0.00000015       0.00154169      -0.00053893 </v>
   <v>       0.00000021       0.00068056      -0.00106213 </v>
   <v>       0.00000008       0.00107941       0.00035346 </v>
   <v>      -0.00000072      -0.00195148      -0.00025919 </v>
  </varray>
  <varray name="stress" >
   <v>      -1.29982707       0.00000219       0.00000219 </v>
   <v>       0.00000239      -1.05362482      -0.02890257 </v>
   <v>       0.00000217      -0.02890265      -0.99227935 </v>
  </varray>
  <energy>
   <i name="e_fr_energy">    -35.98235234 </i>
   <i name="e_wo_entrp">    -35.98221277 </i>
   <i name="e_0_energy">     -0.00027914 </i>
  </energy>
  <time name="totalsc">    8.48    8.50</time>
  <eigenvalues>
   <array>
    <dimension dim="1">band</dimension>
    <dimension dim="2">kpoint</dimension>
    <dimension dim="3">spin</dimension>
    <field>eigene</field>
    <field>occ</field>
    <set>
     <set comment="spin 1">
      <set comment="kpoint 1">
       <r>  -12.4606    1.0000 </r>
       <r>  -11.5626    1.0000 </r>
       <r>  -10.7540    1.0000 </r>
       <r>  -10.4913    1.0000 </r>
       <r>   -5.2392    1.0000 </r>
       <r>   -4.5670    1.0000 </r>
       <r>   -4.3077    1.0000 </r>
       <r>   -3.5586    1.0000 </r>
       <r>   -2.4303    1.0000 </r>
       <r>   -2.0184    1.0000 </r>
       <r>   -1.9598    1.0000 </r>
       <r>   -1.6518    1.0000 </r>
       <r>   -1.3108    1.0000 </r>
       <r>   -0.9564    1.0000 </r>
       <r>   -0.6778    1.0000 </r>
       <r>   -0.2202    1.0000 </r>
       <r>   -0.0012    1.0000 </r>
       <r>    0.5967    0.0000 </r>
       <r>    0.9077    0.0000 </r>
       <r>    1.5238    0.0000 </r>
       <r>    2.0356    0.0000 </r>
       <r>    2.4193    0.0000 </r>
       <r>    2.6244    0.0000 </r>
       <r>    3.5241    0.0000 </r>
      </set>
      <set comment="kpoint 2">
       <r>  -12.3915    1.0000 </r>
       <r>  -11.5158    1.0000 </r>
       <r>  -10.7182    1.0000 </r>
       <r>  -10.4453    1.0000 </r>
       <r>   -5.1670    1.0000 </r>
       <r>   -4.4882    1.0000 </r>
       <r>   -4.2784    1.0000 </r>
       <r>   -3.5270    1.0000 </r>
       <r>   -2.4697    1.0000 </r>
       <r>   -2.1733    1.0000 </r>
       <r>   -2.0542    1.0000 </r>
       <r>   -1.7120    1.0000 </r>
       <r>   -1.3093    1.0000 </r>
       <r>   -0.9141    1.0000 </r>
       <r>   -0.7111    1.0000 </r>
       <r>   -0.3937    1.0000 </r>
       <r>   -0.0051    1.0000 </r>
       <r>    0.4445    0.0477 </r>
       <r>    0.5910    0.0000 </r>
       <r>    1.6699    0.0000 </r>
       <r>    2.1423    0.0000 </r>
       <r>    2.3673    0.0000 </r>
       <r>    2.4274    0.0000 </r>
       <r>    3.1141    0.0000 </r>
      </set>
      <set comment="kpoint 3">
       <r>  -12.2550    1.0000 </r>
       <r>  -11.4242    1.0000 </r>
       <r>  -10.6499    1.0000 </r>
       <r>  -10.3580    1.0000 </r>
       <r>   -5.0286    1.0000 </r>
       <r>   -4.3520    1.0000 </r>
       <r>   -4.2147    1.0000 </r>
       <r>   -3.4770    1.0000 </r>
       <r>   -2.5490    1.0000 </r>
       <r>   -2.4550    1.0000 </r>
       <r>   -2.1226    1.0000 </r>
       <r>   -1.9418    1.0000 </r>
       <r>   -1.3398    1.0000 </r>
       <r>   -1.0279    1.0000 </r>
       <r>   -0.8055    1.0000 </r>
       <r>   -0.5296    1.0000 </r>
       <r>   -0.0123    1.0000 </r>
       <r>    0.0924    1.0000 </r>
       <r>    0.3614    0.9987 </r>
       <r>    1.6381    0.0000 </r>
       <r>    2.1999    0.0000 </r>
       <r>    2.3015    0.0000 </r>
       <r>    2.4061    0.0000 </r>
       <r>    2.5674    0.0000 </r>
      </set>
      <set comment="kpoint 4">
       <r>  -12.0550    1.0000 </r>
       <r>  -11.2924    1.0000 </r>
       <r>  -10.5565    1.0000 </r>
       <r>  -10.2402    1.0000 </r>
       <r>   -4.8377    1.0000 </r>
       <r>   -4.2633    1.0000 </r>
       <r>   -4.0455    1.0000 </r>
       <r>   -3.4346    1.0000 </r>
       <r>   -2.8441    1.0000 </r>
       <r>   -2.6236    1.0000 </r>
       <r>   -2.3082    1.0000 </r>
       <r>   -2.2069    1.0000 </r>
       <r>   -1.3870    1.0000 </r>
       <r>   -1.2286    1.0000 </r>
       <r>   -1.0785    1.0000 </r>
       <r>   -0.7122    1.0000 </r>
       <r>   -0.3300    1.0000 </r>
       <r>    0.0099    1.0000 </r>
       <r>    0.3505    0.9996 </r>
       <r>    1.4620    0.0000 </r>
       <r>    2.1005    0.0000 </r>
       <r>    2.2141    0.0000 </r>
       <r>    2.3918    0.0000 </r>
       <r>    2.4207    0.0000 </r>
      </set>
      <set comment="kpoint 5">
       <r>  -11.7977    1.0000 </r>
       <r>  -11.1279    1.0000 </r>
       <r>  -10.4494    1.0000 </r>
       <r>  -10.1102    1.0000 </r>
       <r>   -4.6228    1.0000 </r>
       <r>   -4.2640    1.0000 </r>
       <r>   -3.7791    1.0000 </r>
       <r>   -3.4775    1.0000 </r>
       <r>   -3.3080    1.0000 </r>
       <r>   -2.6621    1.0000 </r>
       <r>   -2.5184    1.0000 </r>
       <r>   -2.4259    1.0000 </r>
       <r>   -1.6995    1.0000 </r>
       <r>   -1.4130    1.0000 </r>
       <r>   -1.3502    1.0000 </r>
       <r>   -0.9880    1.0000 </r>
       <r>   -0.5440    1.0000 </r>
       <r>   -0.0420    1.0000 </r>
       <r>    0.4962    0.0001 </r>
       <r>    1.3502    0.0000 </r>
       <r>    1.8325    0.0000 </r>
       <r>    2.2377    0.0000 </r>
       <r>    2.3614    0.0000 </r>
       <r>    2.5101    0.0000 </r>
      </set>
      <set comment="kpoint 6">
       <r>  -11.4935    1.0000 </r>
       <r>  -10.9418    1.0000 </r>
       <r>  -10.3446    1.0000 </r>
       <r>   -9.9969    1.0000 </r>
       <r>   -4.4435    1.0000 </r>
       <r>   -4.3167    1.0000 </r>
       <r>   -3.9622    1.0000 </r>
       <r>   -3.4798    1.0000 </r>
       <r>   -3.3298    1.0000 </r>
       <r>   -2.8076    1.0000 </r>
       <r>   -2.6838    1.0000 </r>
       <r>   -2.5965    1.0000 </r>
       <r>   -2.2367    1.0000 </r>
       <r>   -1.5299    1.0000 </r>
       <r>   -1.4038    1.0000 </r>
       <r>   -1.2306    1.0000 </r>
       <r>   -0.6928    1.0000 </r>
       <r>   -0.1775    1.0000 </r>
       <r>    0.7341    0.0000 </r>
       <r>    1.3212    0.0000 </r>
       <r>    1.7338    0.0000 </r>
       <r>    2.2582    0.0000 </r>
       <r>    2.3450    0.0000 </r>
       <r>    2.4644    0.0000 </r>
      </set>
      <set comment="kpoint 7">
       <r>  -11.1588    1.0000 </r>
       <r>  -10.7506    1.0000 </r>
       <r>  -10.2614    1.0000 </r>
       <r>   -9.9389    1.0000 </r>
       <r>   -4.4706    1.0000 </r>
       <r>   -4.3420    1.0000 </r>
       <r>   -4.3116    1.0000 </r>
       <r>   -3.4100    1.0000 </r>
       <r>   -3.2535    1.0000 </r>
       <r>   -3.0922    1.0000 </r>
       <r>   -2.8397    1.0000 </r>
       <r>   -2.7984    1.0000 </r>
       <r>   -2.2226    1.0000 </r>
       <r>   -1.6898    1.0000 </r>
       <r>   -1.4388    1.0000 </r>
       <r>   -1.3292    1.0000 </r>
       <r>   -0.8535    1.0000 </r>
       <r>   -0.3902    1.0000 </r>
       <r>    1.0088    0.0000 </r>
       <r>    1.3689    0.0000 </r>
       <r>    1.7581    0.0000 </r>
       <r>    2.0882    0.0000 </r>
       <r>    2.2787    0.0000 </r>
       <r>    2.4846    0.0000 </r>
      </set>
      <set comment="kpoint 8">
       <r>  -10.8215    1.0000 </r>
       <r>  -10.5781    1.0000 </r>
       <r>  -10.2157    1.0000 </r>
       <r>   -9.9725    1.0000 </r>
       <r>   -4.6373    1.0000 </r>
       <r>   -4.4660    1.0000 </r>
       <r>   -4.3185    1.0000 </r>
       <r>   -3.8404    1.0000 </r>
       <r>   -3.3174    1.0000 </r>
       <r>   -3.2270    1.0000 </r>
       <r>   -2.7505    1.0000 </r>
       <r>   -2.6103    1.0000 </r>
       <r>   -2.0860    1.0000 </r>
       <r>   -1.8734    1.0000 </r>
       <r>   -1.4644    1.0000 </r>
       <r>   -1.3069    1.0000 </r>
       <r>   -1.0082    1.0000 </r>
       <r>   -0.6642    1.0000 </r>
       <r>    1.2691    0.0000 </r>
       <r>    1.4576    0.0000 </r>
       <r>    1.8126    0.0000 </r>
       <r>    1.9091    0.0000 </r>
       <r>    2.1642    0.0000 </r>
       <r>    2.4943    0.0000 </r>
      </set>
      <set comment="kpoint 9">
       <r>  -10.5426    1.0000 </r>
       <r>  -10.4682    1.0000 </r>
       <r>  -10.1948    1.0000 </r>
       <r>  -10.0965    1.0000 </r>
       <r>   -4.6428    1.0000 </r>
       <r>   -4.5360    1.0000 </r>
       <r>   -4.3388    1.0000 </r>
       <r>   -4.2102    1.0000 </r>
       <r>   -3.3814    1.0000 </r>
       <r>   -3.3488    1.0000 </r>
       <r>   -2.4578    1.0000 </r>
       <r>   -2.3346    1.0000 </r>
       <r>   -2.1745    1.0000 </r>
       <r>   -2.0848    1.0000 </r>
       <r>   -1.3306    1.0000 </r>
       <r>   -1.2535    1.0000 </r>
       <r>   -1.1041    1.0000 </r>
       <r>   -0.9623    1.0000 </r>
       <r>    1.4487    0.0000 </r>
       <r>    1.5028    0.0000 </r>
       <r>    1.8054    0.0000 </r>
       <r>    1.8095    0.0000 </r>
       <r>    2.2231    0.0000 </r>
       <r>    2.3814    0.0000 </r>
      </set>
      <set comment="kpoint 10">
       <r>  -10.5426    1.0000 </r>
       <r>  -10.4682    1.0000 </r>
       <r>  -10.1948    1.0000 </r>
       <r>  -10.0965    1.0000 </r>
       <r>   -4.6428    1.0000 </r>
       <r>   -4.5360    1.0000 </r>
       <r>   -4.3388    1.0000 </r>
       <r>   -4.2102    1.0000 </r>
       <r>   -3.3814    1.0000 </r>
       <r>   -3.3488    1.0000 </r>
       <r>   -2.4578    1.0000 </r>
       <r>   -2.3346    1.0000 </r>
       <r>   -2.1745    1.0000 </r>
       <r>   -2.0848    1.0000 </r>
       <r>   -1.3306    1.0000 </r>
       <r>   -1.2535    1.0000 </r>
       <r>   -1.1041    1.0000 </r>
       <r>   -0.9623    1.0000 </r>
       <r>    1.4487    0.0000 </r>
       <r>    1.5028    0.0000 </r>
       <r>    1.8054    0.0000 </r>
       <r>    1.8095    0.0000 </r>
       <r>    2.2231    0.0000 </r>
       <r>    2.3814    0.0000 </r>
      </set>
      <set comment="kpoint 11">
       <r>  -10.8215    1.0000 </r>
       <r>  -10.5781    1.0000 </r>
       <r>  -10.2157    1.0000 </r>
       <r>   -9.9725    1.0000 </r>
       <r>   -4.6373    1.0000 </r>
       <r>   -4.4660    1.0000 </r>
       <r>   -4.3185    1.0000 </r>
       <r>   -3.8404    1.0000 </r>
       <r>   -3.3174    1.0000 </r>
       <r>   -3.2270    1.0000 </r>
       <r>   -2.7505    1.0000 </r>
       <r>   -2.6103    1.0000 </r>
       <r>   -2.0860    1.0000 </r>
       <r>   -1.8734    1.0000 </r>
       <r>   -1.4644    1.0000 </r>
       <r>   -1.3069    1.0000 </r>
       <r>   -1.0082    1.0000 </r>
       <r>   -0.6642    1.0000 </r>
       <r>    1.2691    0.0000 </r>
       <r>    1.4576    0.0000 </r>
       <r>    1.8126    0.0000 </r>
       <r>    1.9091    0.0000 </r>
       <r>    2.1642    0.0000 </r>
       <r>    2.4943    0.0000 </r>
      </set>
      <set comment="kpoint 12">
       <r>  -11.1588    1.0000 </r>
       <r>  -10.7506    1.0000 </r>
       <r>  -10.2614    1.0000 </r>
       <r>   -9.9389    1.0000 </r>
       <r>   -4.4706    1.0000 </r>
       <r>   -4.3420    1.0000 </r>
       <r>   -4.3116    1.0000 </r>
       <r>   -3.4100    1.0000 </r>
       <r>   -3.2535    1.0000 </r>
       <r>   -3.0922    1.0000 </r>
       <r>   -2.8397    1.0000 </r>
       <r>   -2.7984    1.0000 </r>
       <r>   -2.2226    1.0000 </r>
       <r>   -1.6898    1.0000 </r>
       <r>   -1.4388    1.0000 </r>
       <r>   -1.3292    1.0000 </r>
       <r>   -0.8535    1.0000 </r>
       <r>   -0.3902    1.0000 </r>
       <r>    1.0088    0.0000 </r>
       <r>    1.3689    0.0000 </r>
       <r>    1.7581    0.0000 </r>
       <r>    2.0882    0.0000 </r>
       <r>    2.2787    0.0000 </r>
       <r>    2.4846    0.0000 </r>
      </set>
      <set comment="kpoint 13">
       <r>  -11.4935    1.0000 </r>
       <r>  -10.9418    1.0000 </r>
       <r>  -10.3446    1.0000 </r>
       <r>   -9.9969    1.0000 </r>
       <r>   -4.4435    1.0000 </r>
       <r>   -4.3167    1.0000 </r>
       <r>   -3.9622    1.0000 </r>
       <r>   -3.4798    1.0000 </r>
       <r>   -3.3298    1.0000 </r>
       <r>   -2.8076    1.0000 </r>
       <r>   -2.6838    1.0000 </r>
       <r>   -2.5965    1.0000 </r>
       <r>   -2.2367    1.0000 </r>
       <r>   -1.5299    1.0000 </r>
       <r>   -1.4038    1.0000 </r>
       <r>   -1.2306    1.0000 </r>
       <r>   -0.6928    1.0000 </r>
       <r>   -0.1775    1.0000 </r>
       <r>    0.7341    0.0000 </r>
       <r>    1.3212    0.0000 </r>
       <r>    1.7338    0.0000 </r>
       <r>    2.2582    0.0000 </r>
       <r>    2.3450    0.0000 </r>
       <r>    2.4644    0.0000 </r>
      </set>
      <set comment="kpoint 14">
       <r>  -11.7977    1.0000 </r>
       <r>  -11.1279    1.0000 </r>
       <r>  -10.4494    1.0000 </r>
       <r>  -10.1102    1.0000 </r>
       <r>   -4.6228    1.0000 </r>
       <r>   -4.2640    1.0000 </r>
       <r>   -3.7791    1.0000 </r>
       <r>   -3.4775    1.0000 </r>
       <r>   -3.3080    1.0000 </r>
       <r>   -2.6621    1.0000 </r>
       <r>   -2.5184    1.0000 </r>
       <r>   -2.4259    1.0000 </r>
       <r>   -1.6995    1.0000 </r>
       <r>   -1.4130    1.0000 </r>
       <r>   -1.3502    1.0000 </r>
       <r>   -0.9880    1.0000 </r>
       <r>   -0.5440    1.0000 </r>
       <r>   -0.0420    1.0000 </r>
       <r>    0.4962    0.0001 </r>
       <r>    1.3502    0.0000 </r>
       <r>    1.8325    0.0000 </r>
       <r>    2.2377    0.0000 </r>
       <r>    2.3614    0.0000 </r>
       <r>    2.5101    0.0000 </r>
      </set>
      <set comment="kpoint 15">
       <r>  -12.0550    1.0000 </r>
       <r>  -11.2924    1.0000 </r>
       <r>  -10.5565    1.0000 </r>
       <r>  -10.2402    1.0000 </r>
       <r>   -4.8377    1.0000 </r>
       <r>   -4.2633    1.0000 </r>
       <r>   -4.0455    1.0000 </r>
       <r>   -3.4346    1.0000 </r>
       <r>   -2.8441    1.0000 </r>
       <r>   -2.6236    1.0000 </r>
       <r>   -2.3082    1.0000 </r>
       <r>   -2.2069    1.0000 </r>
       <r>   -1.3870    1.0000 </r>
       <r>   -1.2286    1.0000 </r>
       <r>   -1.0785    1.0000 </r>
       <r>   -0.7122    1.0000 </r>
       <r>   -0.3300    1.0000 </r>
       <r>    0.0099    1.0000 </r>
       <r>    0.3505    0.9996 </r>
       <r>    1.4620    0.0000 </r>
       <r>    2.1005    0.0000 </r>
       <r>    2.2141    0.0000 </r>
       <r>    2.3918    0.0000 </r>
       <r>    2.4207    0.0000 </r>
      </set>
      <set comment="kpoint 16">
       <r>  -12.2550    1.0000 </r>
       <r>  -11.4242    1.0000 </r>
       <r>  -10.6499    1.0000 </r>
       <r>  -10.3580    1.0000 </r>
       <r>   -5.0286    1.0000 </r>
       <r>   -4.3520    1.0000 </r>
       <r>   -4.2147    1.0000 </r>
       <r>   -3.4770    1.0000 </r>
       <r>   -2.5490    1.0000 </r>
       <r>   -2.4550    1.0000 </r>
       <r>   -2.1226    1.0000 </r>
       <r>   -1.9418    1.0000 </r>
       <r>   -1.3398    1.0000 </r>
       <r>   -1.0279    1.0000 </r>
       <r>   -0.8055    1.0000 </r>
       <r>   -0.5296    1.0000 </r>
       <r>   -0.0123    1.0000 </r>
       <r>    0.0924    1.0000 </r>
       <r>    0.3614    0.9987 </r>
       <r>    1.6381    0.0000 </r>
       <r>    2.1999    0.0000 </r>
       <r>    2.3015    0.0000 </r>
       <r>    2.4061    0.0000 </r>
       <r>    2.5674    0.0000 </r>
      </set>
      <set comment="kpoint 17">
       <r>  -12.3915    1.0000 </r>
       <r>  -11.5158    1.0000 </r>
       <r>  -10.7182    1.0000 </r>
       <r>  -10.4453    1.0000 </r>
       <r>   -5.1670    1.0000 </r>
       <r>   -4.4882    1.0000 </r>
       <r>   -4.2784    1.0000 </r>
       <r>   -3.5270    1.0000 </r>
       <r>   -2.4697    1.0000 </r>
       <r>   -2.1733    1.0000 </r>
       <r>   -2.0542    1.0000 </r>
       <r>   -1.7120    1.0000 </r>
       <r>   -1.3093    1.0000 </r>
       <r>   -0.9141    1.0000 </r>
       <r>   -0.7111    1.0000 </r>
       <r>   -0.3937    1.0000 </r>
       <r>   -0.0051    1.0000 </r>
       <r>    0.4445    0.0477 </r>
       <r>    0.5910    0.0000 </r>
       <r>    1.6699    0.0000 </r>
       <r>    2.1423    0.0000 </r>
       <r>    2.3673    0.0000 </r>
       <r>    2.4274    0.0000 </r>
       <r>    3.1141    0.0000 </r>
      </set>
      <set comment="kpoint 18">
       <r>  -12.4606    1.0000 </r>
       <r>  -11.5626    1.0000 </r>
       <r>  -10.7540    1.0000 </r>
       <r>  -10.4913    1.0000 </r>
       <r>   -5.2392    1.0000 </r>
       <r>   -4.5670    1.0000 </r>
       <r>   -4.3077    1.0000 </r>
       <r>   -3.5586    1.0000 </r>
       <r>   -2.4303    1.0000 </r>
       <r>   -2.0184    1.0000 </r>
       <r>   -1.9598    1.0000 </r>
       <r>   -1.6518    1.0000 </r>
       <r>   -1.3108    1.0000 </r>
       <r>   -0.9564    1.0000 </r>
       <r>   -0.6778    1.0000 </r>
       <r>   -0.2202    1.0000 </r>
       <r>   -0.0012    1.0000 </r>
       <r>    0.5967    0.0000 </r>
       <r>    0.9077    0.0000 </r>
       <r>    1.5238    0.0000 </r>
       <r>    2.0356    0.0000 </r>
       <r>    2.4193    0.0000 </r>
       <r>    2.6244    0.0000 </r>
       <r>    3.5241    0.0000 </r>
      </set>
      <set comment="kpoint 19">
       <r>  -12.4423    1.0000 </r>
       <r>  -11.5537    1.0000 </r>
       <r>  -10.7950    1.0000 </r>
       <r>  -10.5005    1.0000 </r>
       <r>   -5.2150    1.0000 </r>
       <r>   -4.5162    1.0000 </r>
       <r>   -4.2894    1.0000 </r>
       <r>   -3.5327    1.0000 </r>
       <r>   -2.4803    1.0000 </r>
       <r>   -2.0205    1.0000 </r>
       <r>   -1.9375    1.0000 </r>
       <r>   -1.6516    1.0000 </r>
       <r>   -1.3926    1.0000 </r>
       <r>   -0.8889    1.0000 </r>
       <r>   -0.7062    1.0000 </r>
       <r>   -0.2298    1.0000 </r>
       <r>    0.0022    1.0000 </r>
       <r>    0.5360    0.0000 </r>
       <r>    0.8919    0.0000 </r>
       <r>    1.5201    0.0000 </r>
       <r>    2.0024    0.0000 </r>
       <r>    2.4073    0.0000 </r>
       <r>    2.6573    0.0000 </r>
       <r>    3.4943    0.0000 </r>
      </set>
      <set comment="kpoint 20">
       <r>  -12.3733    1.0000 </r>
       <r>  -11.5069    1.0000 </r>
       <r>  -10.7573    1.0000 </r>
       <r>  -10.4555    1.0000 </r>
       <r>   -5.1415    1.0000 </r>
       <r>   -4.4371    1.0000 </r>
       <r>   -4.2640    1.0000 </r>
       <r>   -3.5001    1.0000 </r>
       <r>   -2.5206    1.0000 </r>
       <r>   -2.1867    1.0000 </r>
       <r>   -2.0294    1.0000 </r>
       <r>   -1.7041    1.0000 </r>
       <r>   -1.3621    1.0000 </r>
       <r>   -0.8924    1.0000 </r>
       <r>   -0.7363    1.0000 </r>
       <r>   -0.3811    1.0000 </r>
       <r>   -0.0208    1.0000 </r>
       <r>    0.3495    0.9997 </r>
       <r>    0.6635    0.0000 </r>
       <r>    1.6129    0.0000 </r>
       <r>    2.0848    0.0000 </r>
       <r>    2.4027    0.0000 </r>
       <r>    2.4517    0.0000 </r>
       <r>    3.1323    0.0000 </r>
      </set>
      <set comment="kpoint 21">
       <r>  -12.2373    1.0000 </r>
       <r>  -11.4155    1.0000 </r>
       <r>  -10.6857    1.0000 </r>
       <r>  -10.3698    1.0000 </r>
       <r>   -5.0005    1.0000 </r>
       <r>   -4.3017    1.0000 </r>
       <r>   -4.2078    1.0000 </r>
       <r>   -3.4506    1.0000 </r>
       <r>   -2.5971    1.0000 </r>
       <r>   -2.4477    1.0000 </r>
       <r>   -2.1518    1.0000 </r>
       <r>   -1.8978    1.0000 </r>
       <r>   -1.3779    1.0000 </r>
       <r>   -1.0478    1.0000 </r>
       <r>   -0.8144    1.0000 </r>
       <r>   -0.5158    1.0000 </r>
       <r>   -0.0533    1.0000 </r>
       <r>    0.0417    1.0000 </r>
       <r>    0.4381    0.0953 </r>
       <r>    1.5962    0.0000 </r>
       <r>    2.0988    0.0000 </r>
       <r>    2.3643    0.0000 </r>
       <r>    2.3955    0.0000 </r>
       <r>    2.6352    0.0000 </r>
      </set>
      <set comment="kpoint 22">
       <r>  -12.0379    1.0000 </r>
       <r>  -11.2841    1.0000 </r>
       <r>  -10.5879    1.0000 </r>
       <r>  -10.2532    1.0000 </r>
       <r>   -4.8068    1.0000 </r>
       <r>   -4.2374    1.0000 </r>
       <r>   -4.0308    1.0000 </r>
       <r>   -3.4158    1.0000 </r>
       <r>   -2.8347    1.0000 </r>
       <r>   -2.6311    1.0000 </r>
       <r>   -2.3960    1.0000 </r>
       <r>   -2.1326    1.0000 </r>
       <r>   -1.4360    1.0000 </r>
       <r>   -1.2974    1.0000 </r>
       <r>   -1.0015    1.0000 </r>
       <r>   -0.7363    1.0000 </r>
       <r>   -0.3258    1.0000 </r>
       <r>   -0.0346    1.0000 </r>
       <r>    0.3996    0.9017 </r>
       <r>    1.4597    0.0000 </r>
       <r>    2.0326    0.0000 </r>
       <r>    2.1634    0.0000 </r>
       <r>    2.3999    0.0000 </r>
       <r>    2.5355    0.0000 </r>
      </set>
      <set comment="kpoint 23">
       <r>  -11.7817    1.0000 </r>
       <r>  -11.1200    1.0000 </r>
       <r>  -10.4759    1.0000 </r>
       <r>  -10.1233    1.0000 </r>
       <r>   -4.5965    1.0000 </r>
       <r>   -4.2484    1.0000 </r>
       <r>   -3.7992    1.0000 </r>
       <r>   -3.4366    1.0000 </r>
       <r>   -3.2966    1.0000 </r>
       <r>   -2.6476    1.0000 </r>
       <r>   -2.5771    1.0000 </r>
       <r>   -2.3933    1.0000 </r>
       <r>   -1.8061    1.0000 </r>
       <r>   -1.4252    1.0000 </r>
       <r>   -1.2447    1.0000 </r>
       <r>   -0.9969    1.0000 </r>
       <r>   -0.5366    1.0000 </r>
       <r>   -0.0965    1.0000 </r>
       <r>    0.5288    0.0000 </r>
       <r>    1.3633    0.0000 </r>
       <r>    1.8176    0.0000 </r>
       <r>    2.1654    0.0000 </r>
       <r>    2.3628    0.0000 </r>
       <r>    2.6205    0.0000 </r>
      </set>
      <set comment="kpoint 24">
       <r>  -11.4790    1.0000 </r>
       <r>  -10.9346    1.0000 </r>
       <r>  -10.3659    1.0000 </r>
       <r>  -10.0080    1.0000 </r>
       <r>   -4.4814    1.0000 </r>
       <r>   -4.2740    1.0000 </r>
       <r>   -3.9467    1.0000 </r>
       <r>   -3.4807    1.0000 </r>
       <r>   -3.3322    1.0000 </r>
       <r>   -2.7907    1.0000 </r>
       <r>   -2.6926    1.0000 </r>
       <r>   -2.6094    1.0000 </r>
       <r>   -2.2545    1.0000 </r>
       <r>   -1.5148    1.0000 </r>
       <r>   -1.3524    1.0000 </r>
       <r>   -1.2268    1.0000 </r>
       <r>   -0.6970    1.0000 </r>
       <r>   -0.2261    1.0000 </r>
       <r>    0.7513    0.0000 </r>
       <r>    1.3410    0.0000 </r>
       <r>    1.7287    0.0000 </r>
       <r>    2.2184    0.0000 </r>
       <r>    2.3225    0.0000 </r>
       <r>    2.5805    0.0000 </r>
      </set>
      <set comment="kpoint 25">
       <r>  -11.1467    1.0000 </r>
       <r>  -10.7445    1.0000 </r>
       <r>  -10.2776    1.0000 </r>
       <r>   -9.9455    1.0000 </r>
       <r>   -4.5988    1.0000 </r>
       <r>   -4.3280    1.0000 </r>
       <r>   -4.1899    1.0000 </r>
       <r>   -3.4939    1.0000 </r>
       <r>   -3.3063    1.0000 </r>
       <r>   -2.9917    1.0000 </r>
       <r>   -2.8274    1.0000 </r>
       <r>   -2.7949    1.0000 </r>
       <r>   -2.1982    1.0000 </r>
       <r>   -1.6728    1.0000 </r>
       <r>   -1.3938    1.0000 </r>
       <r>   -1.3286    1.0000 </r>
       <r>   -0.8671    1.0000 </r>
       <r>   -0.4202    1.0000 </r>
       <r>    1.0108    0.0000 </r>
       <r>    1.3932    0.0000 </r>
       <r>    1.7582    0.0000 </r>
       <r>    2.0881    0.0000 </r>
       <r>    2.3151    0.0000 </r>
       <r>    2.5050    0.0000 </r>
      </set>
      <set comment="kpoint 26">
       <r>  -10.8137    1.0000 </r>
       <r>  -10.5734    1.0000 </r>
       <r>  -10.2265    1.0000 </r>
       <r>   -9.9725    1.0000 </r>
       <r>   -4.7528    1.0000 </r>
       <r>   -4.4098    1.0000 </r>
       <r>   -4.3291    1.0000 </r>
       <r>   -3.8702    1.0000 </r>
       <r>   -3.3615    1.0000 </r>
       <r>   -3.1119    1.0000 </r>
       <r>   -2.7588    1.0000 </r>
       <r>   -2.5869    1.0000 </r>
       <r>   -2.0655    1.0000 </r>
       <r>   -1.8590    1.0000 </r>
       <r>   -1.4132    1.0000 </r>
       <r>   -1.3073    1.0000 </r>
       <r>   -1.0303    1.0000 </r>
       <r>   -0.6679    1.0000 </r>
       <r>    1.2599    0.0000 </r>
       <r>    1.4809    0.0000 </r>
       <r>    1.8223    0.0000 </r>
       <r>    1.9290    0.0000 </r>
       <r>    2.2001    0.0000 </r>
       <r>    2.4897    0.0000 </r>
      </set>
      <set comment="kpoint 27">
       <r>  -10.5421    1.0000 </r>
       <r>  -10.4666    1.0000 </r>
       <r>  -10.1966    1.0000 </r>
       <r>  -10.0909    1.0000 </r>
       <r>   -4.7448    1.0000 </r>
       <r>   -4.5745    1.0000 </r>
       <r>   -4.3491    1.0000 </r>
       <r>   -4.1916    1.0000 </r>
       <r>   -3.3566    1.0000 </r>
       <r>   -3.2698    1.0000 </r>
       <r>   -2.4653    1.0000 </r>
       <r>   -2.3227    1.0000 </r>
       <r>   -2.1544    1.0000 </r>
       <r>   -2.0675    1.0000 </r>
       <r>   -1.3022    1.0000 </r>
       <r>   -1.2381    1.0000 </r>
       <r>   -1.1250    1.0000 </r>
       <r>   -0.9431    1.0000 </r>
       <r>    1.4420    0.0000 </r>
       <r>    1.5136    0.0000 </r>
       <r>    1.8300    0.0000 </r>
       <r>    1.8382    0.0000 </r>
       <r>    2.2349    0.0000 </r>
       <r>    2.3813    0.0000 </r>
      </set>
      <set comment="kpoint 28">
       <r>  -10.5421    1.0000 </r>
       <r>  -10.4666    1.0000 </r>
       <r>  -10.1966    1.0000 </r>
       <r>  -10.0909    1.0000 </r>
       <r>   -4.7448    1.0000 </r>
       <r>   -4.5745    1.0000 </r>
       <r>   -4.3491    1.0000 </r>
       <r>   -4.1916    1.0000 </r>
       <r>   -3.3566    1.0000 </r>
       <r>   -3.2698    1.0000 </r>
       <r>   -2.4653    1.0000 </r>
       <r>   -2.3227    1.0000 </r>
       <r>   -2.1544    1.0000 </r>
       <r>   -2.0675    1.0000 </r>
       <r>   -1.3022    1.0000 </r>
       <r>   -1.2381    1.0000 </r>
       <r>   -1.1250    1.0000 </r>
       <r>   -0.9431    1.0000 </r>
       <r>    1.4420    0.0000 </r>
       <r>    1.5136    0.0000 </r>
       <r>    1.8300    0.0000 </r>
       <r>    1.8382    0.0000 </r>
       <r>    2.2349    0.0000 </r>
       <r>    2.3813    0.0000 </r>
      </set>
      <set comment="kpoint 29">
       <r>  -10.8137    1.0000 </r>
       <r>  -10.5734    1.0000 </r>
       <r>  -10.2265    1.0000 </r>
       <r>   -9.9725    1.0000 </r>
       <r>   -4.7528    1.0000 </r>
       <r>   -4.4098    1.0000 </r>
       <r>   -4.3291    1.0000 </r>
       <r>   -3.8702    1.0000 </r>
       <r>   -3.3615    1.0000 </r>
       <r>   -3.1119    1.0000 </r>
       <r>   -2.7588    1.0000 </r>
       <r>   -2.5869    1.0000 </r>
       <r>   -2.0655    1.0000 </r>
       <r>   -1.8590    1.0000 </r>
       <r>   -1.4132    1.0000 </r>
       <r>   -1.3073    1.0000 </r>
       <r>   -1.0303    1.0000 </r>
       <r>   -0.6679    1.0000 </r>
       <r>    1.2599    0.0000 </r>
       <r>    1.4809    0.0000 </r>
       <r>    1.8223    0.0000 </r>
       <r>    1.9290    0.0000 </r>
       <r>    2.2001    0.0000 </r>
       <r>    2.4897    0.0000 </r>
      </set>
      <set comment="kpoint 30">
       <r>  -11.1467    1.0000 </r>
       <r>  -10.7445    1.0000 </r>
       <r>  -10.2776    1.0000 </r>
[...]
       <r>    2.6736    0.0000 </r>
      </set>
      <set comment="kpoint 159">
       <r>  -11.5097    1.0000 </r>
       <r>  -11.3548    1.0000 </r>
       <r>  -11.0672    1.0000 </r>
       <r>  -10.5096    1.0000 </r>
       <r>   -4.0412    1.0000 </r>
       <r>   -3.9657    1.0000 </r>
       <r>   -3.6962    1.0000 </r>
       <r>   -3.3820    1.0000 </r>
       <r>   -3.1779    1.0000 </r>
       <r>   -2.7409    1.0000 </r>
       <r>   -2.4433    1.0000 </r>
       <r>   -2.1846    1.0000 </r>
       <r>   -1.3959    1.0000 </r>
       <r>   -1.3006    1.0000 </r>
       <r>   -1.0533    1.0000 </r>
       <r>   -0.9537    1.0000 </r>
       <r>   -0.6819    1.0000 </r>
       <r>   -0.2257    1.0000 </r>
       <r>    0.7196    0.0000 </r>
       <r>    0.9876    0.0000 </r>
       <r>    1.8512    0.0000 </r>
       <r>    1.9147    0.0000 </r>
       <r>    2.4387    0.0000 </r>
       <r>    2.6943    0.0000 </r>
      </set>
      <set comment="kpoint 160">
       <r>  -11.6901    1.0000 </r>
       <r>  -11.5162    1.0000 </r>
       <r>  -11.1786    1.0000 </r>
       <r>  -10.6307    1.0000 </r>
       <r>   -4.2556    1.0000 </r>
       <r>   -4.0748    1.0000 </r>
       <r>   -3.8678    1.0000 </r>
       <r>   -3.0460    1.0000 </r>
       <r>   -2.8501    1.0000 </r>
       <r>   -2.6651    1.0000 </r>
       <r>   -2.2980    1.0000 </r>
       <r>   -1.7605    1.0000 </r>
       <r>   -1.3515    1.0000 </r>
       <r>   -1.1904    1.0000 </r>
       <r>   -0.9780    1.0000 </r>
       <r>   -0.9136    1.0000 </r>
       <r>   -0.5436    1.0000 </r>
       <r>   -0.2162    1.0000 </r>
       <r>    0.8095    0.0000 </r>
       <r>    0.8732    0.0000 </r>
       <r>    1.8250    0.0000 </r>
       <r>    1.9959    0.0000 </r>
       <r>    2.6671    0.0000 </r>
       <r>    2.8766    0.0000 </r>
      </set>
      <set comment="kpoint 161">
       <r>  -11.8143    1.0000 </r>
       <r>  -11.6293    1.0000 </r>
       <r>  -11.2570    1.0000 </r>
       <r>  -10.7166    1.0000 </r>
       <r>   -4.4168    1.0000 </r>
       <r>   -4.1741    1.0000 </r>
       <r>   -3.9851    1.0000 </r>
       <r>   -2.9584    1.0000 </r>
       <r>   -2.7367    1.0000 </r>
       <r>   -2.3213    1.0000 </r>
       <r>   -2.1012    1.0000 </r>
       <r>   -1.5494    1.0000 </r>
       <r>   -1.4760    1.0000 </r>
       <r>   -1.1328    1.0000 </r>
       <r>   -0.9474    1.0000 </r>
       <r>   -0.6894    1.0000 </r>
       <r>   -0.4156    1.0000 </r>
       <r>   -0.2907    1.0000 </r>
       <r>    0.6443    0.0000 </r>
       <r>    1.1584    0.0000 </r>
       <r>    1.7914    0.0000 </r>
       <r>    2.1010    0.0000 </r>
       <r>    2.9515    0.0000 </r>
       <r>    3.1887    0.0000 </r>
      </set>
      <set comment="kpoint 162">
       <r>  -11.8775    1.0000 </r>
       <r>  -11.6874    1.0000 </r>
       <r>  -11.2974    1.0000 </r>
       <r>  -10.7611    1.0000 </r>
       <r>   -4.5012    1.0000 </r>
       <r>   -4.2309    1.0000 </r>
       <r>   -4.0443    1.0000 </r>
       <r>   -3.0064    1.0000 </r>
       <r>   -2.6052    1.0000 </r>
       <r>   -1.9923    1.0000 </r>
       <r>   -1.9249    1.0000 </r>
       <r>   -1.6846    1.0000 </r>
       <r>   -1.6053    1.0000 </r>
       <r>   -1.0393    1.0000 </r>
       <r>   -0.9756    1.0000 </r>
       <r>   -0.5092    1.0000 </r>
       <r>   -0.3916    1.0000 </r>
       <r>   -0.2374    1.0000 </r>
       <r>    0.4569    0.0117 </r>
       <r>    1.4877    0.0000 </r>
       <r>    1.7613    0.0000 </r>
       <r>    2.1428    0.0000 </r>
       <r>    3.1646    0.0000 </r>
       <r>    3.1930    0.0000 </r>
      </set>
     </set>
    </set>
   </array>
  </eigenvalues>
  <separator name="orbital magnetization" >
   <v name="MAGDIPOLOUT">      0.00000000      0.00000000      0.00000000</v>
  </separator>
  <dos>
   <i name="efermi">      0.41868355 </i>
   <total>
    <array>
     <dimension dim="1">gridpoints</dimension>
     <dimension dim="2">spin</dimension>
     <field>energy</field>
     <field>total</field>
     <field>integrated</field>
     <set>
      <set comment="spin 1">
       <r>   -13.2598     0.0000     0.0000 </r>
       <r>   -13.2012     0.0000     0.0000 </r>
       <r>   -13.1426     0.0000     0.0000 </r>
       <r>   -13.0840     0.0000     0.0000 </r>
       <r>   -13.0254     0.0000     0.0000 </r>
       <r>   -12.9668     0.0000     0.0000 </r>
       <r>   -12.9082     0.0000     0.0000 </r>
       <r>   -12.8496     0.0000     0.0000 </r>
       <r>   -12.7910     0.0000     0.0000 </r>
       <r>   -12.7323     0.0000     0.0000 </r>
       <r>   -12.6737     0.0000     0.0000 </r>
       <r>   -12.6151     0.0000     0.0000 </r>
       <r>   -12.5565     0.0000     0.0000 </r>
       <r>   -12.4979     0.0062     0.0004 </r>
       <r>   -12.4393     0.6393     0.0378 </r>
       <r>   -12.3807     1.0343     0.1004 </r>
       <r>   -12.3221     1.0539     0.1689 </r>
       <r>   -12.2635     0.8847     0.2252 </r>
       <r>   -12.2049     1.2820     0.3053 </r>
       <r>   -12.1462     0.9772     0.3632 </r>
       <r>   -12.0876     0.9757     0.4206 </r>
       <r>   -12.0290     1.3648     0.5008 </r>
       <r>   -11.9704     1.5046     0.5902 </r>
       <r>   -11.9118     0.8001     0.6427 </r>
       <r>   -11.8532     1.2233     0.7146 </r>
       <r>   -11.7946     1.2627     0.7905 </r>
       <r>   -11.7360     1.1176     0.8626 </r>
       <r>   -11.6774     1.4415     0.9514 </r>
       <r>   -11.6187     0.9514     1.0133 </r>
       <r>   -11.5601     1.3496     1.0998 </r>
       <r>   -11.5015     3.4059     1.3020 </r>
       <r>   -11.4429     3.8483     1.5432 </r>
       <r>   -11.3843     3.2850     1.7399 </r>
       <r>   -11.3257     2.3031     1.8827 </r>
       <r>   -11.2671     3.5649     2.0952 </r>
       <r>   -11.2085     2.7169     2.2687 </r>
       <r>   -11.1499     3.5291     2.4767 </r>
       <r>   -11.0913     3.2184     2.6672 </r>
       <r>   -11.0326     4.0273     2.9102 </r>
       <r>   -10.9740     1.8482     3.0222 </r>
       <r>   -10.9154     3.8736     3.2538 </r>
       <r>   -10.8568     2.3143     3.4100 </r>
       <r>   -10.7982     3.8152     3.6411 </r>
       <r>   -10.7396     5.1416     3.9495 </r>
       <r>   -10.6810     5.3637     4.2831 </r>
       <r>   -10.6224     4.7082     4.5780 </r>
       <r>   -10.5638     4.8891     4.8750 </r>
       <r>   -10.5051     9.6687     5.4485 </r>
       <r>   -10.4465     8.0211     5.9419 </r>
       <r>   -10.3879     3.1054     6.1470 </r>
       <r>   -10.3293     4.4160     6.4129 </r>
       <r>   -10.2707     2.8354     6.5902 </r>
       <r>   -10.2121     3.7382     6.8104 </r>
       <r>   -10.1535     4.9922     7.1130 </r>
       <r>   -10.0949     2.2487     7.2549 </r>
       <r>   -10.0363     4.6857     7.5343 </r>
       <r>    -9.9777     4.9441     7.8354 </r>
       <r>    -9.9190     2.5344     7.9962 </r>
       <r>    -9.8604     0.0000     8.0000 </r>
       <r>    -9.8018     0.0000     8.0000 </r>
       <r>    -9.7432     0.0000     8.0000 </r>
       <r>    -9.6846     0.0000     8.0000 </r>
       <r>    -9.6260     0.0000     8.0000 </r>
       <r>    -9.5674     0.0000     8.0000 </r>
       <r>    -9.5088     0.0000     8.0000 </r>
       <r>    -9.4502     0.0000     8.0000 </r>
       <r>    -9.3915     0.0000     8.0000 </r>
       <r>    -9.3329     0.0000     8.0000 </r>
       <r>    -9.2743     0.0000     8.0000 </r>
       <r>    -9.2157     0.0000     8.0000 </r>
       <r>    -9.1571     0.0000     8.0000 </r>
       <r>    -9.0985     0.0000     8.0000 </r>
       <r>    -9.0399     0.0000     8.0000 </r>
       <r>    -8.9813     0.0000     8.0000 </r>
       <r>    -8.9227     0.0000     8.0000 </r>
       <r>    -8.8641     0.0000     8.0000 </r>
       <r>    -8.8054     0.0000     8.0000 </r>
       <r>    -8.7468     0.0000     8.0000 </r>
       <r>    -8.6882     0.0000     8.0000 </r>
       <r>    -8.6296     0.0000     8.0000 </r>
       <r>    -8.5710     0.0000     8.0000 </r>
       <r>    -8.5124     0.0000     8.0000 </r>
       <r>    -8.4538     0.0000     8.0000 </r>
       <r>    -8.3952     0.0000     8.0000 </r>
       <r>    -8.3366     0.0000     8.0000 </r>
       <r>    -8.2780     0.0000     8.0000 </r>
       <r>    -8.2193     0.0000     8.0000 </r>
       <r>    -8.1607     0.0000     8.0000 </r>
       <r>    -8.1021     0.0000     8.0000 </r>
       <r>    -8.0435     0.0000     8.0000 </r>
       <r>    -7.9849     0.0000     8.0000 </r>
       <r>    -7.9263     0.0000     8.0000 </r>
       <r>    -7.8677     0.0000     8.0000 </r>
       <r>    -7.8091     0.0000     8.0000 </r>
       <r>    -7.7505     0.0000     8.0000 </r>
       <r>    -7.6918     0.0000     8.0000 </r>
       <r>    -7.6332     0.0000     8.0000 </r>
       <r>    -7.5746     0.0000     8.0000 </r>
       <r>    -7.5160     0.0000     8.0000 </r>
       <r>    -7.4574     0.0000     8.0000 </r>
       <r>    -7.3988     0.0000     8.0000 </r>
       <r>    -7.3402     0.0000     8.0000 </r>
       <r>    -7.2816     0.0000     8.0000 </r>
       <r>    -7.2230     0.0000     8.0000 </r>
       <r>    -7.1644     0.0000     8.0000 </r>
       <r>    -7.1057     0.0000     8.0000 </r>
       <r>    -7.0471     0.0000     8.0000 </r>
       <r>    -6.9885     0.0000     8.0000 </r>
       <r>    -6.9299     0.0000     8.0000 </r>
       <r>    -6.8713     0.0000     8.0000 </r>
       <r>    -6.8127     0.0000     8.0000 </r>
       <r>    -6.7541     0.0000     8.0000 </r>
       <r>    -6.6955     0.0000     8.0000 </r>
       <r>    -6.6369     0.0000     8.0000 </r>
       <r>    -6.5782     0.0000     8.0000 </r>
       <r>    -6.5196     0.0000     8.0000 </r>
       <r>    -6.4610     0.0000     8.0000 </r>
       <r>    -6.4024     0.0000     8.0000 </r>
       <r>    -6.3438     0.0000     8.0000 </r>
       <r>    -6.2852     0.0000     8.0000 </r>
       <r>    -6.2266     0.0000     8.0000 </r>
       <r>    -6.1680     0.0000     8.0000 </r>
       <r>    -6.1094     0.0000     8.0000 </r>
       <r>    -6.0508     0.0000     8.0000 </r>
       <r>    -5.9921     0.0000     8.0000 </r>
       <r>    -5.9335     0.0000     8.0000 </r>
       <r>    -5.8749     0.0000     8.0000 </r>
       <r>    -5.8163     0.0000     8.0000 </r>
       <r>    -5.7577     0.0000     8.0000 </r>
       <r>    -5.6991     0.0000     8.0000 </r>
       <r>    -5.6405     0.0000     8.0000 </r>
       <r>    -5.5819     0.0000     8.0000 </r>
       <r>    -5.5233     0.0000     8.0000 </r>
       <r>    -5.4646     0.0000     8.0000 </r>
       <r>    -5.4060     0.0193     8.0011 </r>
       <r>    -5.3474     0.6888     8.0415 </r>
       <r>    -5.2888     0.5426     8.0739 </r>
       <r>    -5.2302     1.8894     8.1883 </r>
       <r>    -5.1716     1.9315     8.3045 </r>
       <r>    -5.1130     1.9745     8.4207 </r>
       <r>    -5.0544     1.4872     8.5135 </r>
       <r>    -4.9958     1.9324     8.6276 </r>
       <r>    -4.9372     1.7086     8.7302 </r>
       <r>    -4.8785     3.3571     8.9311 </r>
       <r>    -4.8199     2.1939     9.0651 </r>
       <r>    -4.7613     2.2070     9.1977 </r>
       <r>    -4.7027     2.1294     9.3232 </r>
       <r>    -4.6441     1.9357     9.4420 </r>
       <r>    -4.5855     2.5713     9.5965 </r>
       <r>    -4.5269     3.4413     9.8092 </r>
       <r>    -4.4683     4.4228    10.0793 </r>
       <r>    -4.4097     5.0813    10.3879 </r>
       <r>    -4.3511     7.8401    10.8519 </r>
       <r>    -4.2924     7.3625    11.2992 </r>
       <r>    -4.2338     8.5560    11.8121 </r>
       <r>    -4.1752     8.4233    12.3239 </r>
       <r>    -4.1166     4.1794    12.5882 </r>
       <r>    -4.0580     5.3697    12.9062 </r>
       <r>    -3.9994     5.1259    13.2159 </r>
       <r>    -3.9408     4.5006    13.4830 </r>
       <r>    -3.8822     3.9422    13.7261 </r>
       <r>    -3.8236     2.9487    13.9129 </r>
       <r>    -3.7649     3.7413    14.1363 </r>
       <r>    -3.7063     4.1384    14.3908 </r>
       <r>    -3.6477     2.7650    14.5621 </r>
       <r>    -3.5891     2.2366    14.7001 </r>
       <r>    -3.5305     2.8455    14.8793 </r>
       <r>    -3.4719     5.1003    15.1806 </r>
       <r>    -3.4133     5.9721    15.5390 </r>
       <r>    -3.3547     7.4018    15.9810 </r>
       <r>    -3.2961     6.4934    16.3706 </r>
       <r>    -3.2375     3.2983    16.5759 </r>
       <r>    -3.1788     3.8145    16.8082 </r>
       <r>    -3.1202     2.5656    16.9689 </r>
       <r>    -3.0616     2.9103    17.1439 </r>
       <r>    -3.0030     4.9580    17.4369 </r>
       <r>    -2.9444     7.4815    17.8822 </r>
       <r>    -2.8858     4.1880    18.1507 </r>
       <r>    -2.8272     4.0678    18.3990 </r>
       <r>    -2.7686     6.0453    18.7687 </r>
       <r>    -2.7100     6.1724    19.1372 </r>
       <r>    -2.6513     7.4467    19.5935 </r>
       <r>    -2.5927     8.0310    20.1067 </r>
       <r>    -2.5341     4.2428    20.3857 </r>
       <r>    -2.4755     6.3076    20.7708 </r>
       <r>    -2.4169     8.9792    21.3178 </r>
       <r>    -2.3583     3.8696    21.5646 </r>
       <r>    -2.2997     4.4053    21.8308 </r>
       <r>    -2.2411     3.5534    22.0510 </r>
       <r>    -2.1825     5.8743    22.4106 </r>
       <r>    -2.1239     5.1361    22.7242 </r>
       <r>    -2.0652     4.7231    23.0113 </r>
       <r>    -2.0066     4.9802    23.3167 </r>
       <r>    -1.9480     4.9592    23.6355 </r>
       <r>    -1.8894     5.1164    23.9429 </r>
       <r>    -1.8308     4.7727    24.2338 </r>
       <r>    -1.7722     6.6352    24.6353 </r>
       <r>    -1.7136     5.2852    24.9617 </r>
       <r>    -1.6550     7.9535    25.4341 </r>
       <r>    -1.5964     6.4197    25.8264 </r>
       <r>    -1.5377     5.1154    26.1334 </r>
       <r>    -1.4791     4.1777    26.3903 </r>
       <r>    -1.4205     7.1235    26.8197 </r>
       <r>    -1.3619    12.2619    27.5537 </r>
       <r>    -1.3033    10.6003    28.2033 </r>
       <r>    -1.2447     5.9699    28.5639 </r>
       <r>    -1.1861     4.9269    28.8615 </r>
       <r>    -1.1275     3.1302    29.0513 </r>
       <r>    -1.0689     6.0549    29.4090 </r>
       <r>    -1.0103     7.4355    29.8502 </r>
       <r>    -0.9516     8.3517    30.3500 </r>
       <r>    -0.8930    10.4055    30.9846 </r>
       <r>    -0.8344     7.1241    31.4232 </r>
       <r>    -0.7758     5.6723    31.7708 </r>
       <r>    -0.7172     7.4325    32.2176 </r>
       <r>    -0.6586     7.2271    32.6577 </r>
       <r>    -0.6000     3.5684    32.8849 </r>
       <r>    -0.5414     5.4821    33.2145 </r>
       <r>    -0.4828     7.6360    33.6720 </r>
       <r>    -0.4242     1.7736    33.7882 </r>
       <r>    -0.3655     6.4143    34.1671 </r>
       <r>    -0.3069     4.1740    34.4328 </r>
       <r>    -0.2483     2.9124    34.6134 </r>
       <r>    -0.1897     5.1334    34.9177 </r>
       <r>    -0.1311     3.5615    35.1333 </r>
       <r>    -0.0725     3.1076    35.3194 </r>
       <r>    -0.0139     3.7918    35.5532 </r>
       <r>     0.0447     2.4731    35.7037 </r>
       <r>     0.1033     1.1561    35.7724 </r>
       <r>     0.1620     0.4017    35.8016 </r>
       <r>     0.2206     0.4196    35.8287 </r>
       <r>     0.2792     0.3912    35.8520 </r>
       <r>     0.3378     0.5799    35.8863 </r>
       <r>     0.3964     1.2453    35.9607 </r>
       <r>     0.4550     1.5314    36.0511 </r>
       <r>     0.5136     1.5248    36.1513 </r>
       <r>     0.5722     1.7286    36.2575 </r>
       <r>     0.6308     2.2166    36.3889 </r>
       <r>     0.6894     2.9564    36.5647 </r>
       <r>     0.7481     5.2186    36.8755 </r>
       <r>     0.8067     3.4944    37.0906 </r>
       <r>     0.8653     1.3705    37.1782 </r>
       <r>     0.9239     2.7448    37.3427 </r>
       <r>     0.9825     0.7872    37.3936 </r>
       <r>     1.0411     2.4719    37.5390 </r>
       <r>     1.0997     2.5702    37.6957 </r>
       <r>     1.1583     1.3378    37.7770 </r>
       <r>     1.2169     2.0406    37.8980 </r>
       <r>     1.2756     4.8164    38.1818 </r>
       <r>     1.3342     3.0627    38.3706 </r>
       <r>     1.3928     5.6067    38.7071 </r>
       <r>     1.4514     6.4995    39.0999 </r>
       <r>     1.5100     8.4233    39.6067 </r>
       <r>     1.5686     4.6929    39.9012 </r>
       <r>     1.6272     0.8411    39.9516 </r>
       <r>     1.6858     0.7055    39.9976 </r>
       <r>     1.7444     2.3047    40.1361 </r>
       <r>     1.8030     8.7391    40.6610 </r>
       <r>     1.8617     8.1168    41.1520 </r>
       <r>     1.9203     5.3247    41.4999 </r>
       <r>     1.9789     6.0384    41.8679 </r>
       <r>     2.0375     5.0357    42.1860 </r>
       <r>     2.0961     8.6456    42.7119 </r>
       <r>     2.1547     7.1112    43.1546 </r>
       <r>     2.2133     5.7004    43.5048 </r>
       <r>     2.2719     4.4283    43.7971 </r>
       <r>     2.3305     4.1902    44.0561 </r>
       <r>     2.3892     7.5151    44.5036 </r>
       <r>     2.4478     9.1767    45.0547 </r>
       <r>     2.5064    10.5978    45.6921 </r>
       <r>     2.5650     4.5170    45.9854 </r>
       <r>     2.6236     3.3197    46.1901 </r>
       <r>     2.6822     6.1244    46.5603 </r>
       <r>     2.7408     4.3628    46.8373 </r>
       <r>     2.7994     3.3099    47.0453 </r>
       <r>     2.8580     2.6049    47.2028 </r>
       <r>     2.9166     3.1491    47.3952 </r>
       <r>     2.9753     1.1762    47.4722 </r>
       <r>     3.0339     0.1744    47.4842 </r>
       <r>     3.0925     0.4223    47.5090 </r>
       <r>     3.1511     1.3185    47.5865 </r>
       <r>     3.2097     2.4185    47.7318 </r>
       <r>     3.2683     1.4633    47.8264 </r>
       <r>     3.3269     0.3867    47.8501 </r>
       <r>     3.3855     0.4086    47.8760 </r>
       <r>     3.4441     0.8250    47.9271 </r>
       <r>     3.5027     0.6729    47.9704 </r>
       <r>     3.5614     0.4982    47.9997 </r>
       <r>     3.6200     0.0000    48.0000 </r>
       <r>     3.6786     0.0000    48.0000 </r>
       <r>     3.7372     0.0000    48.0000 </r>
       <r>     3.7958     0.0000    48.0000 </r>
       <r>     3.8544     0.0000    48.0000 </r>
       <r>     3.9130     0.0000    48.0000 </r>
       <r>     3.9716     0.0000    48.0000 </r>
       <r>     4.0302     0.0000    48.0000 </r>
       <r>     4.0889     0.0000    48.0000 </r>
       <r>     4.1475     0.0000    48.0000 </r>
       <r>     4.2061     0.0000    48.0000 </r>
       <r>     4.2647     0.0000    48.0000 </r>
       <r>     4.3233     0.0000    48.0000 </r>
      </set>
     </set>
    </array>
   </total>
  </dos>
 </calculation>
 <structure name="finalpos" >
  <crystal>
   <varray name="basis" >
    <v>       3.45200000       0.00000000       0.00000000 </v>
    <v>       0.00000000       6.36800000       0.00000000 </v>
    <v>       0.00000000       0.00000000      16.00000000 </v>
   </varray>
   <i name="volume">    351.71737600 </i>
   <varray name="rec_basis" >
    <v>       0.28968714       0.00000000       0.00000000 </v>
    <v>       0.00000000       0.15703518       0.00000000 </v>
    <v>       0.00000000       0.00000000       0.06250000 </v>
   </varray>
  </crystal>
  <varray name="positions" >
   <v>       0.50000000       0.10153828       0.12919556 </v>
   <v>       0.50000000       0.74911177       0.90753866 </v>
   <v>       0.00000000       0.25750087       0.87080399 </v>
   <v>      -0.00000000       0.60992565       0.09246167 </v>
   <v>       0.50000000       0.36042345       0.99402885 </v>
   <v>       0.00000000       0.99861681       0.00597128 </v>
  </varray>
 </structure>
</modeling>
