2D MoTe2 in a box                       
           1
     3.452000    0.000000    0.000000
     0.000000    6.368000    0.000000
     0.000000    0.000000   16.000000
   Te   Mo
   4   2
Direct configuration=     1
   0.50000000  0.10163317  0.12913313
   0.50000000  0.74915672  0.90758437
   0.00000000  0.25741049  0.87086563
   0.00000000  0.60988065  0.09241625
   0.50000000  0.36059673  0.99406750
   0.00000000  0.99843907  0.00593312
Direct configuration=     2
   0.50000000  0.10157668  0.12915409
   0.50000000  0.74912288  0.90755421
   0.00000000  0.25746469  0.87084569
  -0.00000000  0.60991464  0.09244656
   0.50000000  0.36047801  0.99402146
  -0.00000000  0.99855993  0.00597799
Direct configuration=     3
   0.50000000  0.10156683  0.12915774
   0.50000000  0.74911698  0.90754895
   0.00000000  0.25747414  0.87084222
  -0.00000000  0.60992056  0.09245185
   0.50000000  0.36045731  0.99401343
  -0.00000000  0.99858100  0.00598581
Direct configuration=     4
   0.50000000  0.10154522  0.12918637
   0.50000000  0.74911304  0.90754116
   0.00000000  0.25749437  0.87081328
  -0.00000000  0.60992441  0.09245928
   0.50000000  0.36043168  0.99402510
   0.00000000  0.99860811  0.00597481
Direct configuration=     5
   0.50000000  0.10153828  0.12919556
   0.50000000  0.74911177  0.90753866
   0.00000000  0.25750087  0.87080399
  -0.00000000  0.60992565  0.09246167
   0.50000000  0.36042345  0.99402885
   0.00000000  0.99861681  0.00597128
