   6   6   0   0
  0.5822693E+02  0.3551000E-09  0.6149000E-09  0.1600000E-08  0.5000000E-15
  1.000000000000000E-004
  CAR 
 2D MoTe2 in a box                       
      4.17790377    -13.25810839  301      0.04787376      1.00000000
    -13.258  0.0000E+00  0.0000E+00
    -13.200  0.0000E+00  0.0000E+00
    -13.142  0.0000E+00  0.0000E+00
    -13.084  0.0000E+00  0.0000E+00
    -13.026  0.0000E+00  0.0000E+00
    -12.968  0.0000E+00  0.0000E+00
    -12.909  0.0000E+00  0.0000E+00
    -12.851  0.0000E+00  0.0000E+00
    -12.793  0.0000E+00  0.0000E+00
    -12.735  0.0000E+00  0.0000E+00
    -12.677  0.0000E+00  0.0000E+00
    -12.619  0.0000E+00  0.0000E+00
    -12.561  0.7513E-08  0.4366E-09
    -12.503  0.6282E-05  0.3656E-06
    -12.444  0.6124E-03  0.3596E-04
    -12.386  0.1137E-02  0.1040E-03
    -12.328  0.9652E-03  0.1657E-03
    -12.270  0.9507E-03  0.2284E-03
    -12.212  0.1041E-02  0.2979E-03
    -12.154  0.9634E-03  0.3592E-03
    -12.096  0.1070E-02  0.4215E-03
    -12.038  0.1485E-02  0.5078E-03
    -11.979  0.1111E-02  0.5780E-03
    -11.921  0.3259E-03  0.6116E-03
    -11.863  0.1656E-02  0.7078E-03
    -11.805  0.1250E-02  0.7869E-03
    -11.747  0.1100E-02  0.8551E-03
    -11.689  0.1279E-02  0.9321E-03
    -11.631  0.2425E-03  0.9524E-03
    -11.573  0.2665E-02  0.1107E-02
    -11.515  0.2473E-02  0.1255E-02
    -11.456  0.2679E-02  0.1411E-02
    -11.398  0.3048E-02  0.1592E-02
    -11.340  0.2141E-02  0.1721E-02
    -11.282  0.4109E-02  0.1961E-02
    -11.224  0.3141E-02  0.2149E-02
    -11.166  0.2374E-02  0.2297E-02
    -11.108  0.3739E-02  0.2520E-02
    -11.050  0.2708E-02  0.2683E-02
    -10.991  0.3697E-02  0.2908E-02
    -10.933  0.4303E-02  0.3166E-02
    -10.875  0.3124E-02  0.3363E-02
    -10.817  0.4065E-02  0.3600E-02
    -10.759  0.2929E-02  0.3780E-02
    -10.701  0.6645E-02  0.4173E-02
    -10.643  0.4117E-02  0.4432E-02
    -10.585  0.6127E-02  0.4794E-02
    -10.526  0.6086E-02  0.5166E-02
    -10.468  0.8019E-02  0.5636E-02
    -10.410  0.5079E-02  0.5938E-02
    -10.352  0.5149E-02  0.6254E-02
    -10.294  0.7107E-02  0.6683E-02
    -10.236  0.5759E-02  0.7038E-02
    -10.178  0.5765E-02  0.7393E-02
    -10.120  0.3716E-02  0.7621E-02
    -10.062  0.3426E-02  0.7834E-02
    -10.003  0.2395E-02  0.7986E-02
     -9.945  0.1931E-03  0.8000E-02
     -9.887  0.0000E+00  0.8000E-02
     -9.829  0.0000E+00  0.8000E-02
     -9.771  0.0000E+00  0.8000E-02
     -9.713  0.0000E+00  0.8000E-02
     -9.655  0.0000E+00  0.8000E-02
     -9.597  0.0000E+00  0.8000E-02
     -9.538  0.0000E+00  0.8000E-02
     -9.480  0.0000E+00  0.8000E-02
     -9.422  0.0000E+00  0.8000E-02
     -9.364  0.0000E+00  0.8000E-02
     -9.306  0.0000E+00  0.8000E-02
     -9.248  0.0000E+00  0.8000E-02
     -9.190  0.0000E+00  0.8000E-02
     -9.132  0.0000E+00  0.8000E-02
     -9.073  0.0000E+00  0.8000E-02
     -9.015  0.0000E+00  0.8000E-02
     -8.957  0.0000E+00  0.8000E-02
     -8.899  0.0000E+00  0.8000E-02
     -8.841  0.0000E+00  0.8000E-02
     -8.783  0.0000E+00  0.8000E-02
     -8.725  0.0000E+00  0.8000E-02
     -8.667  0.0000E+00  0.8000E-02
     -8.609  0.0000E+00  0.8000E-02
     -8.550  0.0000E+00  0.8000E-02
     -8.492  0.0000E+00  0.8000E-02
     -8.434  0.0000E+00  0.8000E-02
     -8.376  0.0000E+00  0.8000E-02
     -8.318  0.0000E+00  0.8000E-02
     -8.260  0.0000E+00  0.8000E-02
     -8.202  0.0000E+00  0.8000E-02
     -8.144  0.0000E+00  0.8000E-02
     -8.085  0.0000E+00  0.8000E-02
     -8.027  0.0000E+00  0.8000E-02
     -7.969  0.0000E+00  0.8000E-02
     -7.911  0.0000E+00  0.8000E-02
     -7.853  0.0000E+00  0.8000E-02
     -7.795  0.0000E+00  0.8000E-02
     -7.737  0.0000E+00  0.8000E-02
     -7.679  0.0000E+00  0.8000E-02
     -7.620  0.0000E+00  0.8000E-02
     -7.562  0.0000E+00  0.8000E-02
     -7.504  0.0000E+00  0.8000E-02
     -7.446  0.0000E+00  0.8000E-02
     -7.388  0.0000E+00  0.8000E-02
     -7.330  0.0000E+00  0.8000E-02
     -7.272  0.0000E+00  0.8000E-02
     -7.214  0.0000E+00  0.8000E-02
     -7.156  0.0000E+00  0.8000E-02
     -7.097  0.0000E+00  0.8000E-02
     -7.039  0.0000E+00  0.8000E-02
     -6.981  0.0000E+00  0.8000E-02
     -6.923  0.0000E+00  0.8000E-02
     -6.865  0.0000E+00  0.8000E-02
     -6.807  0.0000E+00  0.8000E-02
     -6.749  0.0000E+00  0.8000E-02
     -6.691  0.0000E+00  0.8000E-02
     -6.632  0.0000E+00  0.8000E-02
     -6.574  0.0000E+00  0.8000E-02
     -6.516  0.0000E+00  0.8000E-02
     -6.458  0.0000E+00  0.8000E-02
     -6.400  0.0000E+00  0.8000E-02
     -6.342  0.0000E+00  0.8000E-02
     -6.284  0.0000E+00  0.8000E-02
     -6.226  0.0000E+00  0.8000E-02
     -6.167  0.0000E+00  0.8000E-02
     -6.109  0.0000E+00  0.8000E-02
     -6.051  0.0000E+00  0.8000E-02
     -5.993  0.0000E+00  0.8000E-02
     -5.935  0.0000E+00  0.8000E-02
     -5.877  0.0000E+00  0.8000E-02
     -5.819  0.0000E+00  0.8000E-02
     -5.761  0.0000E+00  0.8000E-02
     -5.703  0.0000E+00  0.8000E-02
     -5.644  0.0000E+00  0.8000E-02
     -5.586  0.0000E+00  0.8000E-02
     -5.528  0.0000E+00  0.8000E-02
     -5.470  0.0000E+00  0.8000E-02
     -5.412  0.0000E+00  0.8000E-02
     -5.354  0.1910E-07  0.8000E-02
     -5.296  0.1591E-04  0.8001E-02
     -5.238  0.1330E-02  0.8078E-02
     -5.179  0.1576E-02  0.8173E-02
     -5.121  0.9264E-03  0.8236E-02
     -5.063  0.2335E-02  0.8372E-02
     -5.005  0.1583E-02  0.8465E-02
     -4.947  0.1967E-02  0.8580E-02
     -4.889  0.6645E-03  0.8620E-02
     -4.831  0.3664E-02  0.8833E-02
     -4.773  0.2656E-02  0.8993E-02
     -4.714  0.2952E-02  0.9173E-02
     -4.656  0.2665E-02  0.9341E-02
     -4.598  0.3517E-02  0.9548E-02
     -4.540  0.5447E-02  0.9871E-02
     -4.482  0.3491E-02  0.1008E-01
     -4.424  0.4865E-02  0.1037E-01
     -4.366  0.9533E-02  0.1093E-01
     -4.308  0.1030E-01  0.1156E-01
     -4.250  0.5422E-02  0.1189E-01
     -4.191  0.6946E-02  0.1231E-01
     -4.133  0.5369E-02  0.1264E-01
     -4.075  0.6099E-02  0.1301E-01
     -4.017  0.6734E-02  0.1344E-01
     -3.959  0.3115E-02  0.1365E-01
     -3.901  0.1645E-02  0.1375E-01
     -3.843  0.2475E-02  0.1390E-01
     -3.785  0.5989E-03  0.1394E-01
     -3.726  0.1049E-02  0.1400E-01
     -3.668  0.1852E-02  0.1410E-01
     -3.610  0.1444E-02  0.1419E-01
     -3.552  0.1755E-02  0.1429E-01
     -3.494  0.1219E-02  0.1437E-01
     -3.436  0.1487E-02  0.1446E-01
     -3.378  0.3945E-02  0.1469E-01
     -3.320  0.5636E-02  0.1502E-01
     -3.261  0.9930E-02  0.1561E-01
     -3.203  0.1207E-01  0.1636E-01
     -3.145  0.1221E-01  0.1711E-01
     -3.087  0.7992E-02  0.1761E-01
     -3.029  0.3407E-02  0.1784E-01
     -2.971  0.2464E-02  0.1799E-01
     -2.913  0.2760E-02  0.1815E-01
     -2.855  0.1460E-02  0.1824E-01
     -2.797  0.6903E-02  0.1865E-01
     -2.738  0.7287E-02  0.1909E-01
     -2.680  0.8236E-02  0.1957E-01
     -2.622  0.3830E-02  0.1981E-01
     -2.564  0.5380E-02  0.2012E-01
     -2.506  0.4175E-02  0.2038E-01
     -2.448  0.7147E-02  0.2080E-01
     -2.390  0.4166E-02  0.2105E-01
     -2.332  0.3963E-02  0.2130E-01
     -2.273  0.8481E-02  0.2179E-01
     -2.215  0.5826E-02  0.2215E-01
     -2.157  0.6592E-02  0.2254E-01
     -2.099  0.3704E-02  0.2277E-01
     -2.041  0.4380E-02  0.2303E-01
     -1.983  0.5458E-02  0.2336E-01
     -1.925  0.1975E-02  0.2349E-01
     -1.867  0.4177E-02  0.2374E-01
     -1.808  0.2607E-02  0.2391E-01
     -1.750  0.2891E-02  0.2408E-01
     -1.692  0.5479E-02  0.2440E-01
     -1.634  0.3329E-02  0.2462E-01
     -1.576  0.5176E-02  0.2493E-01
     -1.518  0.8818E-02  0.2545E-01
     -1.460  0.1209E-01  0.2618E-01
     -1.402  0.1064E-01  0.2683E-01
     -1.344  0.8238E-02  0.2733E-01
     -1.285  0.5234E-02  0.2766E-01
     -1.227  0.9815E-02  0.2824E-01
     -1.169  0.8544E-02  0.2877E-01
     -1.111  0.8057E-02  0.2926E-01
     -1.053  0.4040E-02  0.2952E-01
     -0.995  0.6321E-02  0.2991E-01
     -0.937  0.4838E-02  0.3020E-01
     -0.879  0.6002E-02  0.3057E-01
     -0.820  0.4506E-02  0.3083E-01
     -0.762  0.4916E-02  0.3113E-01
     -0.704  0.6598E-02  0.3151E-01
     -0.646  0.7098E-02  0.3195E-01
     -0.588  0.7619E-02  0.3240E-01
     -0.530  0.7145E-02  0.3284E-01
     -0.472  0.7048E-02  0.3327E-01
     -0.414  0.7114E-02  0.3369E-01
     -0.355  0.7761E-02  0.3416E-01
     -0.297  0.4694E-02  0.3446E-01
     -0.239  0.6843E-02  0.3486E-01
     -0.181  0.6988E-02  0.3528E-01
     -0.123  0.5417E-02  0.3560E-01
     -0.065  0.2953E-02  0.3578E-01
     -0.007  0.2019E-02  0.3590E-01
      0.051  0.1341E-02  0.3598E-01
      0.110  0.2502E-03  0.3600E-01
      0.168  0.0000E+00  0.3600E-01
      0.226  0.0000E+00  0.3600E-01
      0.284  0.0000E+00  0.3600E-01
      0.342  0.0000E+00  0.3600E-01
      0.400  0.0000E+00  0.3600E-01
      0.458  0.0000E+00  0.3600E-01
      0.516  0.0000E+00  0.3600E-01
      0.574  0.0000E+00  0.3600E-01
      0.633  0.0000E+00  0.3600E-01
      0.691  0.0000E+00  0.3600E-01
      0.749  0.0000E+00  0.3600E-01
      0.807  0.0000E+00  0.3600E-01
      0.865  0.0000E+00  0.3600E-01
      0.923  0.0000E+00  0.3600E-01
      0.981  0.0000E+00  0.3600E-01
      1.039  0.5884E-09  0.3600E-01
      1.098  0.5031E-06  0.3600E-01
      1.156  0.2862E-03  0.3602E-01
      1.214  0.1252E-02  0.3609E-01
      1.272  0.1166E-02  0.3616E-01
      1.330  0.2677E-02  0.3632E-01
      1.388  0.6664E-02  0.3672E-01
      1.446  0.8146E-02  0.3721E-01
      1.504  0.2009E-01  0.3840E-01
      1.563  0.9418E-02  0.3902E-01
      1.621  0.2737E-02  0.3920E-01
      1.679  0.3921E-02  0.3943E-01
      1.737  0.1298E-01  0.4020E-01
      1.795  0.9984E-02  0.4082E-01
      1.853  0.7729E-02  0.4130E-01
      1.911  0.3970E-02  0.4154E-01
      1.969  0.5245E-02  0.4185E-01
      2.027  0.8530E-02  0.4236E-01
      2.086  0.7860E-02  0.4283E-01
      2.144  0.8108E-02  0.4333E-01
      2.202  0.9927E-02  0.4392E-01
      2.260  0.5935E-02  0.4429E-01
      2.318  0.1108E-01  0.4494E-01
      2.376  0.4116E-02  0.4520E-01
      2.434  0.2491E-02  0.4535E-01
      2.492  0.7038E-02  0.4576E-01
      2.551  0.2176E-02  0.4590E-01
      2.609  0.3187E-02  0.4609E-01
      2.667  0.5497E-02  0.4641E-01
      2.725  0.2236E-02  0.4654E-01
      2.783  0.2262E-02  0.4668E-01
      2.841  0.2355E-02  0.4683E-01
      2.899  0.1417E-02  0.4691E-01
      2.957  0.3545E-02  0.4712E-01
      3.016  0.2794E-02  0.4728E-01
      3.074  0.1100E-02  0.4735E-01
      3.132  0.2180E-02  0.4748E-01
      3.190  0.2032E-02  0.4760E-01
      3.248  0.3547E-02  0.4781E-01
      3.306  0.4249E-03  0.4785E-01
      3.364  0.1713E-02  0.4795E-01
      3.422  0.8680E-03  0.4800E-01
      3.480  0.0000E+00  0.4800E-01
      3.539  0.0000E+00  0.4800E-01
      3.597  0.0000E+00  0.4800E-01
      3.655  0.0000E+00  0.4800E-01
      3.713  0.0000E+00  0.4800E-01
      3.771  0.0000E+00  0.4800E-01
      3.829  0.0000E+00  0.4800E-01
      3.887  0.0000E+00  0.4800E-01
      3.945  0.0000E+00  0.4800E-01
      4.004  0.0000E+00  0.4800E-01
      4.062  0.0000E+00  0.4800E-01
      4.120  0.0000E+00  0.4800E-01
      4.178  0.0000E+00  0.4800E-01
