    6    6 1000    1
  0.5822693E+02  0.3551000E-09  0.6149000E-09  0.1600000E-08  0.5000000E-15
  1.000000000000000E-004
  CAR 
 2D MoTe2 in a box                       
     36    162     24
 
  0.2777778E-01  0.2777778E-01  0.1262379E-14  0.6172840E-02
    1      -12.465562
    2      -11.567425
    3      -10.565517
    4      -10.233952
    5       -5.260291
    6       -4.824788
    7       -4.426218
    8       -3.219975
    9       -2.222343
   10       -1.642870
   11       -1.608913
   12       -1.575283
   13       -1.528608
   14       -0.826992
   15       -0.797065
   16       -0.729322
   17       -0.389519
   18       -0.221947
   19        1.452317
   20        1.779850
   21        3.103345
   22        3.166585
   23        3.337418
   24        3.364347
 
  0.8333333E-01  0.2777778E-01  0.1262379E-14  0.6172840E-02
    1      -12.404091
    2      -11.522562
    3      -10.534730
    4      -10.209251
    5       -5.185888
    6       -4.756383
    7       -4.408706
    8       -3.196876
    9       -2.330996
   10       -1.772195
   11       -1.748295
   12       -1.523404
   13       -1.512165
   14       -1.121877
   15       -0.916154
   16       -0.722892
   17       -0.395384
   18       -0.178180
   19        1.478693
   20        1.817221
   21        2.832971
   22        2.971453
   23        3.184702
   24        3.219452
 
  0.1388889E+00  0.2777778E-01  0.1262379E-14  0.6172840E-02
    1      -12.282991
    2      -11.434301
    3      -10.477958
    4      -10.164021
    5       -5.039721
    6       -4.624433
    7       -4.381809
    8       -3.161410
    9       -2.499168
   10       -2.007226
   11       -1.970435
   12       -1.701223
   13       -1.507714
   14       -1.427009
   15       -1.110038
   16       -0.636412
   17       -0.419047
   18       -0.146773
   19        1.461553
   20        1.939201
   21        2.467491
   22        2.489889
   23        2.698907
   24        2.980028
 
  0.1944444E+00  0.2777778E-01  0.1262379E-14  0.6172840E-02
    1      -12.106130
    2      -11.305784
    3      -10.405300
    4      -10.106858
    5       -4.828069
    6       -4.439999
    7       -4.360758
    8       -3.145783
    9       -2.669415
   10       -2.353202
   11       -2.311958
   12       -2.195190
   13       -1.532294
   14       -1.419232
   15       -1.305619
   16       -0.586283
   17       -0.476598
   18       -0.100379
   19        1.376592
   20        2.048140
   21        2.140933
   22        2.172861
   23        2.308079
   24        2.624071
 
  0.2500000E+00  0.2777778E-01  0.1262379E-14  0.6172840E-02
    1      -11.879900
    2      -11.142100
    3      -10.332962
    4      -10.051021
    5       -4.565863
    6       -4.360530
    7       -4.225030
    8       -3.278371
    9       -2.793286
   10       -2.741655
   11       -2.738501
   12       -2.435123
   13       -1.816197
   14       -1.579727
   15       -1.216900
   16       -0.597934
   17       -0.552501
   18       -0.027028
   19        1.258197
   20        1.710335
   21        2.023907
   22        2.062005
   23        2.256987
   24        2.362489
 
  0.3055556E+00  0.2777778E-01  0.1262379E-14  0.6172840E-02
    1      -11.613866
    2      -10.950842
    3      -10.283523
    4      -10.013815
    5       -4.377430
    6       -4.311576
    7       -4.032066
    8       -3.603515
    9       -3.100741
   10       -2.848026
   11       -2.831482
   12       -2.719847
   13       -2.208785
   14       -1.622584
   15       -1.285749
   16       -0.678994
   17       -0.552513
   18        0.043796
   19        1.161829
   20        1.470547
   21        1.954924
   22        1.974252
   23        2.010468
   24        2.525271
 
  0.3611111E+00  0.2777778E-01  0.1262379E-14  0.6172840E-02
    1      -11.322019
    2      -10.742823
    3      -10.283731
    4      -10.014032
    5       -4.377203
    6       -4.311315
    7       -4.006658
    8       -3.603654
    9       -3.271137
   10       -3.098042
   11       -2.847838
   12       -2.831458
   13       -2.481486
   14       -1.622758
   15       -1.545536
   16       -0.822307
   17       -0.463065
   18        0.043934
   19        1.161578
   20        1.331053
   21        1.821500
   22        1.954977
   23        2.074861
   24        2.524891
 
  0.4166667E+00  0.2777778E-01  0.1262379E-14  0.6172840E-02
    1      -11.023866
    2      -10.532374
    3      -10.357374
    4      -10.066601
    5       -4.472199
    6       -4.312326
    7       -4.205864
    8       -3.512065
    9       -3.274773
   10       -3.186938
   11       -2.823152
   12       -2.822797
   13       -2.639021
   14       -1.909977
   15       -1.551443
   16       -1.009859
   17       -0.375746
   18       -0.052812
   19        1.276794
   20        1.354117
   21        1.745371
   22        2.019550
   23        2.143060
   24        2.311585
 
  0.4722222E+00  0.2777778E-01  0.1262379E-14  0.6172840E-02
    1      -10.744964
    2      -10.514464
    3      -10.337277
    4      -10.176705
    5       -4.517616
    6       -4.415415
    7       -4.148683
    8       -3.876762
    9       -3.055534
   10       -3.013479
   11       -2.786852
   12       -2.731722
   13       -2.704505
   14       -2.321322
   15       -1.407542
   16       -1.215639
   17       -0.296327
   18       -0.186527
   19        1.429926
   20        1.487404
   21        1.734454
   22        1.983157
   23        2.102185
   24        2.155266
 
 -0.4722222E+00  0.2777778E-01  0.1262379E-14  0.6172840E-02
    1      -10.744964
    2      -10.514464
    3      -10.337277
    4      -10.176705
    5       -4.517616
    6       -4.415415
    7       -4.148683
    8       -3.876762
    9       -3.055534
   10       -3.013479
   11       -2.786852
   12       -2.731722
   13       -2.704505
   14       -2.321322
   15       -1.407542
   16       -1.215639
   17       -0.296327
   18       -0.186527
   19        1.429926
   20        1.487404
   21        1.734454
   22        1.983157
   23        2.102185
   24        2.155266
 
 -0.4166667E+00  0.2777778E-01  0.1262379E-14  0.6172840E-02
    1      -11.023866
    2      -10.532374
    3      -10.357374
    4      -10.066601
    5       -4.472199
    6       -4.312326
    7       -4.205864
    8       -3.512065
    9       -3.274773
   10       -3.186938
   11       -2.823152
   12       -2.822797
   13       -2.639021
   14       -1.909977
   15       -1.551443
   16       -1.009859
   17       -0.375746
   18       -0.052812
   19        1.276794
   20        1.354117
   21        1.745371
   22        2.019550
   23        2.143060
   24        2.311585
 
 -0.3611111E+00  0.2777778E-01  0.1262379E-14  0.6172840E-02
    1      -11.322019
    2      -10.742823
    3      -10.283731
    4      -10.014032
    5       -4.377203
    6       -4.311315
    7       -4.006658
    8       -3.603654
    9       -3.271137
   10       -3.098042
   11       -2.847838
   12       -2.831458
   13       -2.481486
   14       -1.622758
   15       -1.545536
   16       -0.822307
   17       -0.463065
   18        0.043934
   19        1.161578
   20        1.331053
   21        1.821500
   22        1.954977
   23        2.074861
   24        2.524891
 
 -0.3055556E+00  0.2777778E-01  0.1262379E-14  0.6172840E-02
    1      -11.613866
    2      -10.950842
    3      -10.283523
    4      -10.013815
    5       -4.377430
    6       -4.311576
    7       -4.032066
    8       -3.603515
    9       -3.100741
   10       -2.848026
   11       -2.831482
   12       -2.719847
   13       -2.208785
   14       -1.622584
   15       -1.285749
   16       -0.678994
   17       -0.552513
   18        0.043796
   19        1.161829
   20        1.470547
   21        1.954924
   22        1.974252
   23        2.010468
   24        2.525271
 
 -0.2500000E+00  0.2777778E-01  0.1262379E-14  0.6172840E-02
    1      -11.879900
    2      -11.142100
    3      -10.332962
    4      -10.051021
    5       -4.565863
    6       -4.360530
    7       -4.225030
    8       -3.278371
    9       -2.793286
   10       -2.741655
   11       -2.738501
   12       -2.435123
   13       -1.816197
   14       -1.579727
   15       -1.216900
   16       -0.597934
   17       -0.552501
   18       -0.027028
   19        1.258197
   20        1.710335
   21        2.023907
   22        2.062005
   23        2.256987
   24        2.362489
 
 -0.1944444E+00  0.2777778E-01  0.1262379E-14  0.6172840E-02
    1      -12.106130
    2      -11.305784
    3      -10.405300
    4      -10.106858
    5       -4.828069
    6       -4.439999
    7       -4.360758
    8       -3.145783
    9       -2.669415
   10       -2.353202
   11       -2.311958
   12       -2.195190
   13       -1.532294
   14       -1.419232
   15       -1.305619
   16       -0.586283
   17       -0.476598
   18       -0.100379
   19        1.376592
   20        2.048140
   21        2.140933
   22        2.172861
   23        2.308079
   24        2.624071
 
 -0.1388889E+00  0.2777778E-01  0.1262379E-14  0.6172840E-02
    1      -12.282991
    2      -11.434301
    3      -10.477958
    4      -10.164021
    5       -5.039721
    6       -4.624433
    7       -4.381809
    8       -3.161410
    9       -2.499168
   10       -2.007226
   11       -1.970435
   12       -1.701223
   13       -1.507714
   14       -1.427009
   15       -1.110038
   16       -0.636412
   17       -0.419047
   18       -0.146773
   19        1.461553
   20        1.939201
   21        2.467491
   22        2.489889
   23        2.698907
   24        2.980028
 
 -0.8333333E-01  0.2777778E-01  0.1262379E-14  0.6172840E-02
    1      -12.404091
    2      -11.522562
    3      -10.534730
    4      -10.209251
    5       -5.185888
    6       -4.756383
    7       -4.408706
    8       -3.196876
    9       -2.330996
   10       -1.772195
   11       -1.748295
   12       -1.523404
   13       -1.512165
   14       -1.121877
   15       -0.916154
   16       -0.722892
   17       -0.395384
   18       -0.178180
   19        1.478693
   20        1.817221
   21        2.832971
   22        2.971453
   23        3.216030
   24        3.243482
 
 -0.2777778E-01  0.2777778E-01  0.1262379E-14  0.6172840E-02
    1      -12.465562
    2      -11.567425
    3      -10.565517
    4      -10.233952
    5       -5.260291
    6       -4.824788
    7       -4.426218
    8       -3.219975
    9       -2.222343
   10       -1.642870
   11       -1.608913
   12       -1.575283
   13       -1.528608
   14       -0.826992
   15       -0.797065
   16       -0.729322
   17       -0.389519
   18       -0.221947
   19        1.452317
   20        1.779850
   21        3.103345
   22        3.166585
   23        3.337535
   24        3.374355
 
  0.2777778E-01  0.8333333E-01  0.1262379E-14  0.6172840E-02
    1      -12.444994
    2      -11.552403
    3      -10.610495
    4      -10.263095
    5       -5.192405
    6       -4.801796
    7       -4.369322
    8       -3.227477
    9       -2.207401
   10       -1.689299
   11       -1.654988
   12       -1.558969
   13       -1.518400
   14       -0.857765
   15       -0.767181
   16       -0.759583
   17       -0.390952
   18       -0.245817
   19        1.469613
   20        1.752286
   21        3.005178
   22        3.183779
   23        3.201339
   24        3.311423
 
  0.8333333E-01  0.8333333E-01  0.1262379E-14  0.6172840E-02
    1      -12.383724
    2      -11.507700
    3      -10.578491
    4      -10.237782
    5       -5.121411
    6       -4.733929
    7       -4.352738
    8       -3.202129
    9       -2.324602
   10       -1.810859
   11       -1.793640
   12       -1.506158
   13       -1.492256
   14       -1.140158
   15       -0.936941
   16       -0.713551
   17       -0.398294
   18       -0.201754
   19        1.490716
   20        1.781254
   21        2.759813
   22        2.868412
   23        3.128925
   24        3.212800
 
  0.1388889E+00  0.8333333E-01  0.1262379E-14  0.6172840E-02
    1      -12.263047
    2      -11.419793
    3      -10.519219
    4      -10.191260
    5       -4.983273
    6       -4.603256
    7       -4.328430
    8       -3.160800
    9       -2.500918
   10       -2.051956
   11       -2.006901
   12       -1.706427
   13       -1.478258
   14       -1.407578
   15       -1.104926
   16       -0.663197
   17       -0.425239
   18       -0.172275
   19        1.479806
   20        1.884330
   21        2.413383
   22        2.433348
   23        2.675821
   24        2.966772
 
  0.1944444E+00  0.8333333E-01  0.1262379E-14  0.6172840E-02
    1      -12.086893
    2      -11.291860
    3      -10.442653
    4      -10.131966
    5       -4.787814
    6       -4.421325
    7       -4.313172
    8       -3.129825
    9       -2.674139
   10       -2.398189
   11       -2.309532
   12       -2.239295
   13       -1.498612
   14       -1.386632
   15       -1.281056
   16       -0.645060
   17       -0.488134
   18       -0.130585
   19        1.405339
   20        1.996588
   21        2.069720
   22        2.181889
   23        2.300635
   24        2.632991
 
  0.2500000E+00  0.8333333E-01  0.1262379E-14  0.6172840E-02
    1      -11.861713
    2      -11.129068
    3      -10.364875
    4      -10.073011
    5       -4.560234
    6       -4.323591
    7       -4.211382
    8       -3.215859
    9       -2.794413
   10       -2.787459
   11       -2.745563
   12       -2.497422
   13       -1.757078
   14       -1.548004
   15       -1.181622
   16       -0.672541
   17       -0.570279
   18       -0.062597
   19        1.296798
   20        1.686651
   21        2.068970
   22        2.069537
   23        2.274677
   24        2.282208
 
  0.3055556E+00  0.8333333E-01  0.1262379E-14  0.6172840E-02
    1      -11.597237
    2      -10.939146
    3      -10.308451
    4      -10.031614
    5       -4.383812
    6       -4.355485
    7       -4.030936
    8       -3.470238
    9       -3.143744
   10       -2.840208
   11       -2.832679
   12       -2.802297
   13       -2.127344
   14       -1.597762
   15       -1.237412
   16       -0.751585
   17       -0.568538
   18        0.007163
   19        1.204973
   20        1.475597
   21        1.976583
   22        1.983863
   23        2.078501
   24        2.447885
 
  0.3611111E+00  0.8333333E-01  0.1262379E-14  0.6172840E-02
    1      -11.307653
    2      -10.733072
    3      -10.300437
    4      -10.026692
    5       -4.424873
    6       -4.371801
    7       -4.036117
    8       -3.456595
    9       -3.297580
   10       -3.175349
   11       -2.829136
   12       -2.809508
   13       -2.404049
   14       -1.607975
   15       -1.479097
   16       -0.881350
   17       -0.469137
   18        0.017656
   19        1.196831
   20        1.350483
   21        1.820349
   22        1.991037
   23        2.152371
   24        2.467647
 
  0.4166667E+00  0.8333333E-01  0.1262379E-14  0.6172840E-02
    1      -11.012815
    2      -10.525372
    3      -10.365450
    4      -10.073613
    5       -4.559825
    6       -4.323020
    7       -4.258240
    8       -3.570490
    9       -3.216143
   10       -3.209754
   11       -2.793843
   12       -2.745318
   13       -2.578033
   14       -1.814286
   15       -1.548473
   16       -1.051371
   17       -0.373164
   18       -0.062240
   19        1.296221
   20        1.369017
   21        1.741494
   22        2.069187
   23        2.221546
   24        2.281347
 
  0.4722222E+00  0.8333333E-01  0.1262379E-14  0.6172840E-02
    1      -10.738644
    2      -10.514583
    3      -10.334020
    4      -10.178199
    5       -4.590409
    6       -4.478710
    7       -4.174653
    8       -3.918097
    9       -3.093511
   10       -3.063096
   11       -2.748646
   12       -2.683711
   13       -2.541129
   14       -2.188478
   15       -1.417503
   16       -1.240296
   17       -0.290489
   18       -0.184395
   19        1.437366
   20        1.492306
   21        1.732043
   22        1.971972
   23        2.164463
   24        2.228018
 
 -0.4722222E+00  0.8333333E-01  0.1262379E-14  0.6172840E-02
    1      -10.738644
    2      -10.514583
    3      -10.334020
    4      -10.178199
    5       -4.590409
    6       -4.478710
    7       -4.174653
    8       -3.918097
    9       -3.093512
   10       -3.063096
   11       -2.748646
   12       -2.683711
   13       -2.541129
   14       -2.188478
   15       -1.417503
   16       -1.240296
   17       -0.290489
   18       -0.184395
   19        1.437366
   20        1.492306
   21        1.732043
   22        1.971972
   23        2.164463
   24        2.228018
 
 -0.4166667E+00  0.8333333E-01  0.1262379E-14  0.6172840E-02
    1      -11.012815
    2      -10.525372
    3      -10.365450
    4      -10.073613
    5       -4.559825
    6       -4.323020
    7       -4.258240
    8       -3.570490
    9       -3.216143
   10       -3.209754
   11       -2.793843
   12       -2.745318
   13       -2.578033
   14       -1.814286
   15       -1.548473
   16       -1.051371
   17       -0.373164
   18       -0.062240
   19        1.296221
   20        1.369017
   21        1.741494
   22        2.069187
   23        2.221546
   24        2.281347
 
 -0.3611111E+00  0.8333333E-01  0.1262379E-14  0.6172840E-02
    1      -11.307653
    2      -10.733072
    3      -10.300437
    4      -10.026692
    5       -4.424873
    6       -4.371801
    7       -4.036117
    8       -3.456595
    9       -3.297580
   10       -3.175349
   11       -2.829136
   12       -2.809508
   13       -2.404049
   14       -1.607975
   15       -1.479097
   16       -0.881350
   17       -0.469137
   18        0.017656
   19        1.196831
   20        1.350483
   21        1.820349
   22        1.991037
   23        2.152371
   24        2.467647
 
 -0.3055556E+00  0.8333333E-01  0.1262379E-14  0.6172840E-02
    1      -11.597237
    2      -10.939146
    3      -10.308451
    4      -10.031614
    5       -4.383812
    6       -4.355485
    7       -4.030936
    8       -3.470238
    9       -3.143744
   10       -2.840208
   11       -2.832679
   12       -2.802297
   13       -2.127344
   14       -1.597762
   15       -1.237412
   16       -0.751585
   17       -0.568538
   18        0.007163
   19        1.204973
   20        1.475597
   21        1.976583
   22        1.983863
   23        2.078501
   24        2.447885
 
 -0.2500000E+00  0.8333333E-01  0.1262379E-14  0.6172840E-02
    1      -11.861713
    2      -11.129068
    3      -10.364875
    4      -10.073011
    5       -4.560234
    6       -4.323591
    7       -4.211382
    8       -3.215859
    9       -2.794413
   10       -2.787459
   11       -2.745563
   12       -2.497422
   13       -1.757078
   14       -1.548004
   15       -1.181622
   16       -0.672541
   17       -0.570279
   18       -0.062597
   19        1.296798
   20        1.686651
   21        2.068970
   22        2.069537
   23        2.274677
   24        2.282208
 
 -0.1944444E+00  0.8333333E-01  0.1262379E-14  0.6172840E-02
    1      -12.086893
    2      -11.291860
    3      -10.442653
    4      -10.131966
    5       -4.787814
    6       -4.421325
    7       -4.313172
    8       -3.129825
    9       -2.674139
   10       -2.398189
   11       -2.309532
   12       -2.239295
   13       -1.498612
   14       -1.386632
   15       -1.281056
   16       -0.645060
   17       -0.488134
   18       -0.130585
   19        1.405339
   20        1.996588
   21        2.069720
   22        2.181889
   23        2.300635
   24        2.632991
 
 -0.1388889E+00  0.8333333E-01  0.1262379E-14  0.6172840E-02
    1      -12.263047
    2      -11.419793
    3      -10.519219
    4      -10.191260
    5       -4.983273
    6       -4.603256
    7       -4.328430
    8       -3.160800
    9       -2.500918
   10       -2.051956
   11       -2.006901
   12       -1.706427
   13       -1.478258
   14       -1.407578
   15       -1.104926
   16       -0.663197
   17       -0.425239
   18       -0.172275
   19        1.479806
   20        1.884330
   21        2.413383
   22        2.433348
   23        2.675821
   24        2.966772
 
 -0.8333333E-01  0.8333333E-01  0.1262379E-14  0.6172840E-02
    1      -12.383724
    2      -11.507700
    3      -10.578491
    4      -10.237782
    5       -5.121411
    6       -4.733929
    7       -4.352738
    8       -3.202129
    9       -2.324602
   10       -1.810859
   11       -1.793640
   12       -1.506158
   13       -1.492256
   14       -1.140158
   15       -0.936941
   16       -0.713551
   17       -0.398294
   18       -0.201754
   19        1.490716
   20        1.781254
   21        2.759813
   22        2.868412
   23        3.128983
   24        3.225151
 
 -0.2777778E-01  0.8333333E-01  0.1262379E-14  0.6172840E-02
    1      -12.444994
    2      -11.552403
    3      -10.610495
    4      -10.263095
    5       -5.192405
    6       -4.801796
    7       -4.369322
    8       -3.227477
    9       -2.207401
   10       -1.689299
   11       -1.654988
   12       -1.558969
   13       -1.518400
   14       -0.857765
   15       -0.767181
   16       -0.759583
   17       -0.390952
   18       -0.245817
   19        1.469613
   20        1.752286
   21        3.005178
   22        3.183779
   23        3.201339
   24        3.309567
 
  0.2777778E-01  0.1388889E+00  0.1262379E-14  0.6172840E-02
    1      -12.404052
    2      -11.522518
    3      -10.696070
    4      -10.319068
    5       -5.062344
    6       -4.756349
    7       -4.258781
    8       -3.244364
    9       -2.177754
   10       -1.771970
   11       -1.746763
   12       -1.525049
   13       -1.497356
   14       -0.917330
   15       -0.811102
   16       -0.721931
   17       -0.395309
   18       -0.291748
   19        1.503412
   20        1.707108
   21        2.833773
   22        2.973141
   23        3.217324
   24        3.236283
 
  0.8333333E-01  0.1388889E+00  0.1262379E-14  0.6172840E-02
    1      -12.343197
    2      -11.478141
    3      -10.661864
    4      -10.292606
    5       -4.997971
    6       -4.689566
    7       -4.243847
    8       -3.214870
    9       -2.311474
   10       -1.881081
   11       -1.880055
   12       -1.473735
   13       -1.452673
   14       -1.171468
   15       -1.001007
   16       -0.681454
   17       -0.405407
   18       -0.244113
   19        1.506790
   20        1.728593
   21        2.629134
   22        2.697998
   23        3.032193
   24        3.120696
 
  0.1388889E+00  0.1388889E+00  0.1262379E-14  0.6172840E-02
    1      -12.223370
    2      -11.390938
    3      -10.598046
    4      -10.243648
    5       -4.875483
    6       -4.561445
    7       -4.224337
    8       -3.162911
    9       -2.502754
   10       -2.136391
   11       -2.070692
   12       -1.712724
   13       -1.421313
   14       -1.372920
   15       -1.129200
   16       -0.689050
   17       -0.438336
   18       -0.215686
   19        1.504792
   20        1.798598
   21        2.289844
   22        2.368214
   23        2.629393
   24        2.911616
 
  0.1944444E+00  0.1388889E+00  0.1262379E-14  0.6172840E-02
    1      -12.048633
    2      -11.264178
    3      -10.514327
    4      -10.180370
    5       -4.711281
    6       -4.384580
    7       -4.220370
    8       -3.105480
    9       -2.681068
   10       -2.481800
   11       -2.313445
   12       -2.297737
   13       -1.434566
   14       -1.350167
   15       -1.237914
   16       -0.739835
   17       -0.510861
   18       -0.180986
   19        1.451126
   20        1.915296
   21        1.951314
   22        2.191298
   23        2.285150
   24        2.621795
 
  0.2500000E+00  0.1388889E+00  0.1262379E-14  0.6172840E-02
    1      -11.825570
    2      -11.103184
    3      -10.426497
    4      -10.115564
    5       -4.545778
    6       -4.251884
    7       -4.185101
    8       -3.108549
    9       -2.870861
   10       -2.793944
   11       -2.749188
   12       -2.594874
   13       -1.672590
   14       -1.488261
   15       -1.118025
   16       -0.801990
   17       -0.605250
   18       -0.121372
   19        1.360620
   20        1.650030
   21        2.082532
   22        2.143016
   23        2.145440
   24        2.290069
 
  0.3055556E+00  0.1388889E+00  0.1262379E-14  0.6172840E-02
    1      -11.564232
    2      -10.915949
    3      -10.357000
    4      -10.066226
    5       -4.472912
    6       -4.312846
    7       -4.031844
    8       -3.274349
    9       -3.216827
   10       -2.921434
   11       -2.823001
   12       -2.822978
   13       -2.013792
   14       -1.551135
   15       -1.150107
   16       -0.879186
   17       -0.600467
   18       -0.053263
   19        1.277365
   20        1.484910
   21        1.995936
   22        2.019482
   23        2.193973
   24        2.312319
 
  0.3611111E+00  0.1388889E+00  0.1262379E-14  0.6172840E-02
    1      -11.279222
    2      -10.713765
    3      -10.333370
    4      -10.051464
    5       -4.565925
    6       -4.360241
    7       -4.096855
    8       -3.334266
    9       -3.291837
   10       -3.278341
   11       -2.792714
   12       -2.738084
   13       -2.289565
   14       -1.580061
   15       -1.361804
   16       -0.986176
   17       -0.481218
   18       -0.027003
   19        1.257953
   20        1.386635
   21        1.816188
   22        2.062208
   23        2.289891
   24        2.362007
 
  0.4166667E+00  0.1388889E+00  0.1262379E-14  0.6172840E-02
    1      -10.991049
    2      -10.511571
    3      -10.381658
    4      -10.087428
    5       -4.691441
    6       -4.354596
    7       -4.340873
    8       -3.666086
    9       -3.239731
   10       -3.164882
   11       -2.740113
   12       -2.568820
   13       -2.479004
   14       -1.648738
   15       -1.542310
   16       -1.125857
   17       -0.368843
   18       -0.079071
   19        1.331471
   20        1.397646
   21        1.733143
   22        2.166676
   23        2.222737
   24        2.366860
 
  0.4722222E+00  0.1388889E+00  0.1262379E-14  0.6172840E-02
    1      -10.726382
    2      -10.515143
    3      -10.327656
    4      -10.181239
    5       -4.710929
    6       -4.589528
    7       -4.219714
    8       -3.988850
    9       -3.138353
   10       -3.105928
   11       -2.680109
   12       -2.600832
   13       -2.297277
   14       -1.971292
   15       -1.435207
   16       -1.284764
   17       -0.279753
   18       -0.180459
   19        1.450581
   20        1.500621
   21        1.728057
   22        1.950274
   23        2.285628
   24        2.367169
 
 -0.4722222E+00  0.1388889E+00  0.1262379E-14  0.6172840E-02
    1      -10.726382
    2      -10.515143
    3      -10.327656
    4      -10.181239
    5       -4.710929
    6       -4.589528
    7       -4.219714
    8       -3.988850
    9       -3.138353
   10       -3.105928
   11       -2.680109
   12       -2.600832
   13       -2.297277
   14       -1.971292
   15       -1.435207
   16       -1.284764
   17       -0.279753
   18       -0.180459
   19        1.450581
   20        1.500621
   21        1.728057
   22        1.950274
   23        2.285628
   24        2.367169
 
 -0.4166667E+00  0.1388889E+00  0.1262379E-14  0.6172840E-02
    1      -10.991049
    2      -10.511571
    3      -10.381658
    4      -10.087428
    5       -4.691441
    6       -4.354596
    7       -4.340873
    8       -3.666086
    9       -3.239731
   10       -3.164882
   11       -2.740113
   12       -2.568820
   13       -2.479004
   14       -1.648738
   15       -1.542310
   16       -1.125857
   17       -0.368843
   18       -0.079071
   19        1.331471
   20        1.397646
   21        1.733143
   22        2.166676
   23        2.222737
   24        2.366860
 
 -0.3611111E+00  0.1388889E+00  0.1262379E-14  0.6172840E-02
    1      -11.279222
    2      -10.713765
    3      -10.333370
    4      -10.051464
    5       -4.565925
    6       -4.360241
    7       -4.096855
    8       -3.334266
    9       -3.291837
   10       -3.278341
   11       -2.792714
   12       -2.738084
   13       -2.289565
   14       -1.580061
   15       -1.361804
   16       -0.986176
   17       -0.481218
   18       -0.027003
   19        1.257953
   20        1.386635
   21        1.816188
   22        2.062208
   23        2.289891
   24        2.362007
 
 -0.3055556E+00  0.1388889E+00  0.1262379E-14  0.6172840E-02
    1      -11.564232
    2      -10.915949
    3      -10.357000
    4      -10.066226
    5       -4.472912
    6       -4.312846
    7       -4.031844
    8       -3.274349
    9       -3.216827
   10       -2.921434
   11       -2.823001
   12       -2.822978
   13       -2.013792
   14       -1.551135
   15       -1.150107
   16       -0.879186
   17       -0.600467
   18       -0.053263
   19        1.277365
   20        1.484910
   21        1.995936
   22        2.019482
   23        2.193973
   24        2.312319
 
 -0.2500000E+00  0.1388889E+00  0.1262379E-14  0.6172840E-02
    1      -11.825570
    2      -11.103184
    3      -10.426497
    4      -10.115564
    5       -4.545778
    6       -4.251884
    7       -4.185101
    8       -3.108549
    9       -2.870861
   10       -2.793944
   11       -2.749188
   12       -2.594874
   13       -1.672590
   14       -1.488261
   15       -1.118025
   16       -0.801990
   17       -0.605250
   18       -0.121372
   19        1.360620
   20        1.650030
   21        2.082532
   22        2.143016
   23        2.145440
   24        2.290069
 
 -0.1944444E+00  0.1388889E+00  0.1262379E-14  0.6172840E-02
    1      -12.048633
    2      -11.264178
    3      -10.514327
    4      -10.180370
    5       -4.711281
    6       -4.384580
    7       -4.220370
    8       -3.105480