Automatically generated mesh
     162
Reciprocal lattice
    0.02777777777778    0.02777777777778    0.00000000000000             2
    0.08333333333333    0.02777777777778    0.00000000000000             2
    0.13888888888889    0.02777777777778    0.00000000000000             2
    0.19444444444445    0.02777777777778    0.00000000000000             2
    0.25000000000000    0.02777777777778    0.00000000000000             2
    0.30555555555556    0.02777777777778    0.00000000000000             2
    0.36111111111111    0.02777777777778    0.00000000000000             2
    0.41666666666667    0.02777777777778    0.00000000000000             2
    0.47222222222222    0.02777777777778    0.00000000000000             2
   -0.47222222222222    0.02777777777778    0.00000000000000             2
   -0.41666666666667    0.02777777777778    0.00000000000000             2
   -0.36111111111111    0.02777777777778    0.00000000000000             2
   -0.30555555555556    0.02777777777778    0.00000000000000             2
   -0.25000000000000    0.02777777777778    0.00000000000000             2
   -0.19444444444444    0.02777777777778    0.00000000000000             2
   -0.13888888888889    0.02777777777778    0.00000000000000             2
   -0.08333333333333    0.02777777777778    0.00000000000000             2
   -0.02777777777778    0.02777777777778    0.00000000000000             2
    0.02777777777778    0.08333333333333    0.00000000000000             2
    0.08333333333333    0.08333333333333    0.00000000000000             2
    0.13888888888889    0.08333333333333    0.00000000000000             2
    0.19444444444445    0.08333333333333    0.00000000000000             2
    0.25000000000000    0.08333333333333    0.00000000000000             2
    0.30555555555556    0.08333333333333    0.00000000000000             2
    0.36111111111111    0.08333333333333    0.00000000000000             2
    0.41666666666667    0.08333333333333    0.00000000000000             2
    0.47222222222222    0.08333333333333    0.00000000000000             2
   -0.47222222222222    0.08333333333333    0.00000000000000             2
   -0.41666666666667    0.08333333333333    0.00000000000000             2
   -0.36111111111111    0.08333333333333    0.00000000000000             2
   -0.30555555555556    0.08333333333333    0.00000000000000             2
   -0.25000000000000    0.08333333333333    0.00000000000000             2
   -0.19444444444444    0.08333333333333    0.00000000000000             2
   -0.13888888888889    0.08333333333333    0.00000000000000             2
   -0.08333333333333    0.08333333333333    0.00000000000000             2
   -0.02777777777778    0.08333333333333    0.00000000000000             2
    0.02777777777778    0.13888888888889    0.00000000000000             2
    0.08333333333333    0.13888888888889    0.00000000000000             2
    0.13888888888889    0.13888888888889    0.00000000000000             2
    0.19444444444445    0.13888888888889    0.00000000000000             2
    0.25000000000000    0.13888888888889    0.00000000000000             2
    0.30555555555556    0.13888888888889    0.00000000000000             2
    0.36111111111111    0.13888888888889    0.00000000000000             2
    0.41666666666667    0.13888888888889    0.00000000000000             2
    0.47222222222222    0.13888888888889    0.00000000000000             2
   -0.47222222222222    0.13888888888889    0.00000000000000             2
   -0.41666666666667    0.13888888888889    0.00000000000000             2
   -0.36111111111111    0.13888888888889    0.00000000000000             2
   -0.30555555555556    0.13888888888889    0.00000000000000             2
   -0.25000000000000    0.13888888888889    0.00000000000000             2
   -0.19444444444444    0.13888888888889    0.00000000000000             2
   -0.13888888888889    0.13888888888889    0.00000000000000             2
   -0.08333333333333    0.13888888888889    0.00000000000000             2
   -0.02777777777778    0.13888888888889    0.00000000000000             2
    0.02777777777778    0.19444444444445    0.00000000000000             2
    0.08333333333333    0.19444444444445    0.00000000000000             2
    0.13888888888889    0.19444444444445    0.00000000000000             2
    0.19444444444445    0.19444444444445    0.00000000000000             2
    0.25000000000000    0.19444444444445    0.00000000000000             2
    0.30555555555556    0.19444444444445    0.00000000000000             2
    0.36111111111111    0.19444444444445    0.00000000000000             2
    0.41666666666667    0.19444444444445    0.00000000000000             2
    0.47222222222222    0.19444444444445    0.00000000000000             2
   -0.47222222222222    0.19444444444445    0.00000000000000             2
   -0.41666666666667    0.19444444444445    0.00000000000000             2
   -0.36111111111111    0.19444444444445    0.00000000000000             2
   -0.30555555555556    0.19444444444445    0.00000000000000             2
   -0.25000000000000    0.19444444444445    0.00000000000000             2
   -0.19444444444444    0.19444444444445    0.00000000000000             2
   -0.13888888888889    0.19444444444445    0.00000000000000             2
   -0.08333333333333    0.19444444444445    0.00000000000000             2
   -0.02777777777778    0.19444444444445    0.00000000000000             2
    0.02777777777778    0.25000000000000    0.00000000000000             2
    0.08333333333333    0.25000000000000    0.00000000000000             2
    0.13888888888889    0.25000000000000    0.00000000000000             2
    0.19444444444445    0.25000000000000    0.00000000000000             2
    0.25000000000000    0.25000000000000    0.00000000000000             2
    0.30555555555556    0.25000000000000    0.00000000000000             2
    0.36111111111111    0.25000000000000    0.00000000000000             2
    0.41666666666667    0.25000000000000    0.00000000000000             2
    0.47222222222222    0.25000000000000    0.00000000000000             2
   -0.47222222222222    0.25000000000000    0.00000000000000             2
   -0.41666666666667    0.25000000000000    0.00000000000000             2
   -0.36111111111111    0.25000000000000    0.00000000000000             2
   -0.30555555555556    0.25000000000000    0.00000000000000             2
   -0.25000000000000    0.25000000000000    0.00000000000000             2
   -0.19444444444444    0.25000000000000    0.00000000000000             2
   -0.13888888888889    0.25000000000000    0.00000000000000             2
   -0.08333333333333    0.25000000000000    0.00000000000000             2
   -0.02777777777778    0.25000000000000    0.00000000000000             2
    0.02777777777778    0.30555555555556    0.00000000000000             2
    0.08333333333333    0.30555555555556    0.00000000000000             2
    0.13888888888889    0.30555555555556    0.00000000000000             2
    0.19444444444445    0.30555555555556    0.00000000000000             2
    0.25000000000000    0.30555555555556    0.00000000000000             2
    0.30555555555556    0.30555555555556    0.00000000000000             2
    0.36111111111111    0.30555555555556    0.00000000000000             2
    0.41666666666667    0.30555555555556    0.00000000000000             2
    0.47222222222222    0.30555555555556    0.00000000000000             2
   -0.47222222222222    0.30555555555556    0.00000000000000             2
   -0.41666666666667    0.30555555555556    0.00000000000000             2
   -0.36111111111111    0.30555555555556    0.00000000000000             2
   -0.30555555555556    0.30555555555556    0.00000000000000             2
   -0.25000000000000    0.30555555555556    0.00000000000000             2
   -0.19444444444444    0.30555555555556    0.00000000000000             2
   -0.13888888888889    0.30555555555556    0.00000000000000             2
   -0.08333333333333    0.30555555555556    0.00000000000000             2
   -0.02777777777778    0.30555555555556    0.00000000000000             2
    0.02777777777778    0.36111111111111    0.00000000000000             2
    0.08333333333333    0.36111111111111    0.00000000000000             2
    0.13888888888889    0.36111111111111    0.00000000000000             2
    0.19444444444445    0.36111111111111    0.00000000000000             2
    0.25000000000000    0.36111111111111    0.00000000000000             2
    0.30555555555556    0.36111111111111    0.00000000000000             2
    0.36111111111111    0.36111111111111    0.00000000000000             2
    0.41666666666667    0.36111111111111    0.00000000000000             2
    0.47222222222222    0.36111111111111    0.00000000000000             2
   -0.47222222222222    0.36111111111111    0.00000000000000             2
   -0.41666666666667    0.36111111111111    0.00000000000000             2
   -0.36111111111111    0.36111111111111    0.00000000000000             2
   -0.30555555555556    0.36111111111111    0.00000000000000             2
   -0.25000000000000    0.36111111111111    0.00000000000000             2
   -0.19444444444444    0.36111111111111    0.00000000000000             2
   -0.13888888888889    0.36111111111111    0.00000000000000             2
   -0.08333333333333    0.36111111111111    0.00000000000000             2
   -0.02777777777778    0.36111111111111    0.00000000000000             2
    0.02777777777778    0.41666666666667    0.00000000000000             2
    0.08333333333333    0.41666666666667    0.00000000000000             2
    0.13888888888889    0.41666666666667    0.00000000000000             2
    0.19444444444445    0.41666666666667    0.00000000000000             2
    0.25000000000000    0.41666666666667    0.00000000000000             2
    0.30555555555556    0.41666666666667    0.00000000000000             2
    0.36111111111111    0.41666666666667    0.00000000000000             2
    0.41666666666667    0.41666666666667    0.00000000000000             2
    0.47222222222222    0.41666666666667    0.00000000000000             2
   -0.47222222222222    0.41666666666667    0.00000000000000             2
   -0.41666666666667    0.41666666666667    0.00000000000000             2
   -0.36111111111111    0.41666666666667    0.00000000000000             2
   -0.30555555555556    0.41666666666667    0.00000000000000             2
   -0.25000000000000    0.41666666666667    0.00000000000000             2
   -0.19444444444444    0.41666666666667    0.00000000000000             2
   -0.13888888888889    0.41666666666667    0.00000000000000             2
   -0.08333333333333    0.41666666666667    0.00000000000000             2
   -0.02777777777778    0.41666666666667    0.00000000000000             2
    0.02777777777778    0.47222222222222    0.00000000000000             2
    0.08333333333333    0.47222222222222    0.00000000000000             2
    0.13888888888889    0.47222222222222    0.00000000000000             2
    0.19444444444445    0.47222222222222    0.00000000000000             2
    0.25000000000000    0.47222222222222    0.00000000000000             2
    0.30555555555556    0.47222222222222    0.00000000000000             2
    0.36111111111111    0.47222222222222    0.00000000000000             2
    0.41666666666667    0.47222222222222    0.00000000000000             2
    0.47222222222222    0.47222222222222    0.00000000000000             2
   -0.47222222222222    0.47222222222222    0.00000000000000             2
   -0.41666666666667    0.47222222222222    0.00000000000000             2
   -0.36111111111111    0.47222222222222    0.00000000000000             2
   -0.30555555555556    0.47222222222222    0.00000000000000             2
   -0.25000000000000    0.47222222222222    0.00000000000000             2
   -0.19444444444444    0.47222222222222    0.00000000000000             2
   -0.13888888888889    0.47222222222222    0.00000000000000             2
   -0.08333333333333    0.47222222222222    0.00000000000000             2
   -0.02777777777778    0.47222222222222    0.00000000000000             2
