       N       E                     dE             d eps       ncg     rms          rms(c)
DAV:   1     0.187260667609E+03    0.18726E+03   -0.95948E+03  7776   0.794E+02
DAV:   2    -0.179337734118E+02   -0.20519E+03   -0.19998E+03 11608   0.177E+02
DAV:   3    -0.368007733251E+02   -0.18867E+02   -0.18677E+02 10320   0.597E+01
DAV:   4    -0.374870161527E+02   -0.68624E+00   -0.68348E+00 12464   0.129E+01
DAV:   5    -0.374971297058E+02   -0.10114E-01   -0.10107E-01 11048   0.175E+00    0.214E+01
DAV:   6    -0.366655531207E+02    0.83158E+00   -0.73745E+00 10208   0.120E+01    0.923E+00
DAV:   7    -0.366329171524E+02    0.32636E-01   -0.87664E+00  9872   0.136E+01    0.744E+00
DAV:   8    -0.360920894428E+02    0.54083E+00   -0.14869E+00 10448   0.585E+00    0.252E+00
DAV:   9    -0.360655142313E+02    0.26575E-01   -0.34979E-01 10864   0.272E+00    0.686E-01
DAV:  10    -0.360609272208E+02    0.45870E-02   -0.27232E-02 10992   0.888E-01    0.253E-01
DAV:  11    -0.360602049423E+02    0.72228E-03   -0.51570E-03 11104   0.347E-01    0.257E-01
DAV:  12    -0.360597100274E+02    0.49491E-03   -0.13912E-03 10952   0.178E-01    0.131E-01
DAV:  13    -0.360596125456E+02    0.97482E-04   -0.49285E-04 11472   0.937E-02    0.905E-02
DAV:  14    -0.360592136286E+02    0.39892E-03   -0.47994E-04  9288   0.813E-02    0.392E-02
DAV:  15    -0.360592534374E+02   -0.39809E-04   -0.82925E-05 11488   0.391E-02    0.291E-02
DAV:  16    -0.360594168802E+02   -0.16344E-03   -0.19169E-05  9256   0.210E-02    0.337E-02
DAV:  17    -0.360595545966E+02   -0.13772E-03   -0.20090E-05  9320   0.170E-02    0.199E-02
DAV:  18    -0.360596585003E+02   -0.10390E-03   -0.86100E-06 10392   0.125E-02    0.622E-03
DAV:  19    -0.360597272353E+02   -0.68735E-04   -0.22905E-06  7160   0.580E-03    0.783E-03
DAV:  20    -0.360597412423E+02   -0.14007E-04   -0.50342E-07  6360   0.266E-03    0.362E-03
DAV:  21    -0.360597440584E+02   -0.28161E-05   -0.15593E-07  5696   0.139E-03    0.151E-03
DAV:  22    -0.360597446166E+02   -0.55821E-06   -0.70719E-08  4976   0.102E-03
   1 F= -.36059745E+02 E0= -.36059583E+02  d E =-.360597E+02
       N       E                     dE             d eps       ncg     rms          rms(c)
DAV:   1    -0.360597527009E+02   -0.86425E-05   -0.33466E-04  8224   0.802E-02    0.149E-02
DAV:   2    -0.360597531140E+02   -0.41313E-06   -0.16051E-05  8992   0.195E-02    0.888E-03
DAV:   3    -0.360597527331E+02    0.38093E-06   -0.44557E-07  4536   0.413E-03
   2 F= -.36059753E+02 E0= -.36059591E+02  d E =-.811646E-05
       N       E                     dE             d eps       ncg     rms          rms(c)
DAV:   1    -0.360597529155E+02    0.19847E-06   -0.84463E-05  8264   0.403E-02    0.801E-03
DAV:   2    -0.360597528953E+02    0.20183E-07   -0.44579E-06  8360   0.939E-03
   3 F= -.36059753E+02 E0= -.36059591E+02  d E =-.827874E-05
