<?xml version="1.0" encoding="ISO-8859-1"?>
<modeling>
 <generator>
  <i name="program" type="string">vasp </i>
  <i name="version" type="string">5.3.5  </i>
  <i name="subversion" type="string">31Mar14 (build Mar 18 2017 11:34:20) complex                          parallel </i>
  <i name="platform" type="string">LinuxIFC </i>
  <i name="date" type="string">2017 10 27 </i>
  <i name="time" type="string">21:41:23 </i>
 </generator>
 <incar>
  <i type="string" name="SYSTEM"> 2D MoTe2 in a box</i>
  <i type="string" name="PREC">accurate</i>
  <i type="string" name="ALGO"> Normal</i>
  <i type="int" name="NELMDL">    -5</i>
  <i type="int" name="IBRION">     2</i>
  <i name="EDIFF">      0.00000100</i>
  <i type="int" name="NSW">  1000</i>
  <i type="int" name="ISIF">     2</i>
  <i type="int" name="ISYM">     0</i>
  <i name="ENCUT">    350.00000000</i>
  <i name="POTIM">      0.50000000</i>
  <i name="NELECT">     35.98000000</i>
  <i type="logical" name="LREAL"> F  </i>
  <i type="int" name="ISMEAR">    -1</i>
  <i name="SIGMA">      0.00862174</i>
  <i type="int" name="NWRITE">     3</i>
  <i type="logical" name="LWAVE"> F  </i>
  <i type="logical" name="LCHARG"> F  </i>
 </incar>
 <kpoints>
  <generation param="Monkhorst-Pack">
   <v type="int" name="divisions">      18       18        1 </v>
   <v name="usershift">      0.00000000       0.00000000       0.00000000 </v>
   <v name="genvec1">      0.05555556       0.00000000       0.00000000 </v>
   <v name="genvec2">      0.00000000       0.05555556       0.00000000 </v>
   <v name="genvec3">      0.00000000       0.00000000       1.00000000 </v>
   <v name="shift">      0.50000000       0.50000000       0.00000000 </v>
  </generation>
  <varray name="kpointlist" >
   <v>       0.02777778       0.02777778       0.00000000 </v>
   <v>       0.08333333       0.02777778       0.00000000 </v>
   <v>       0.13888889       0.02777778       0.00000000 </v>
   <v>       0.19444444       0.02777778       0.00000000 </v>
   <v>       0.25000000       0.02777778       0.00000000 </v>
   <v>       0.30555556       0.02777778       0.00000000 </v>
   <v>       0.36111111       0.02777778       0.00000000 </v>
   <v>       0.41666667       0.02777778       0.00000000 </v>
   <v>       0.47222222       0.02777778       0.00000000 </v>
   <v>      -0.47222222       0.02777778       0.00000000 </v>
   <v>      -0.41666667       0.02777778       0.00000000 </v>
   <v>      -0.36111111       0.02777778       0.00000000 </v>
   <v>      -0.30555556       0.02777778       0.00000000 </v>
   <v>      -0.25000000       0.02777778       0.00000000 </v>
   <v>      -0.19444444       0.02777778       0.00000000 </v>
   <v>      -0.13888889       0.02777778       0.00000000 </v>
   <v>      -0.08333333       0.02777778       0.00000000 </v>
   <v>      -0.02777778       0.02777778       0.00000000 </v>
   <v>       0.02777778       0.08333333       0.00000000 </v>
   <v>       0.08333333       0.08333333       0.00000000 </v>
   <v>       0.13888889       0.08333333       0.00000000 </v>
   <v>       0.19444444       0.08333333       0.00000000 </v>
   <v>       0.25000000       0.08333333       0.00000000 </v>
   <v>       0.30555556       0.08333333       0.00000000 </v>
   <v>       0.36111111       0.08333333       0.00000000 </v>
   <v>       0.41666667       0.08333333       0.00000000 </v>
   <v>       0.47222222       0.08333333       0.00000000 </v>
   <v>      -0.47222222       0.08333333       0.00000000 </v>
   <v>      -0.41666667       0.08333333       0.00000000 </v>
   <v>      -0.36111111       0.08333333       0.00000000 </v>
   <v>      -0.30555556       0.08333333       0.00000000 </v>
   <v>      -0.25000000       0.08333333       0.00000000 </v>
   <v>      -0.19444444       0.08333333       0.00000000 </v>
   <v>      -0.13888889       0.08333333       0.00000000 </v>
   <v>      -0.08333333       0.08333333       0.00000000 </v>
   <v>      -0.02777778       0.08333333       0.00000000 </v>
   <v>       0.02777778       0.13888889       0.00000000 </v>
   <v>       0.08333333       0.13888889       0.00000000 </v>
   <v>       0.13888889       0.13888889       0.00000000 </v>
   <v>       0.19444444       0.13888889       0.00000000 </v>
   <v>       0.25000000       0.13888889       0.00000000 </v>
   <v>       0.30555556       0.13888889       0.00000000 </v>
   <v>       0.36111111       0.13888889       0.00000000 </v>
   <v>       0.41666667       0.13888889       0.00000000 </v>
   <v>       0.47222222       0.13888889       0.00000000 </v>
   <v>      -0.47222222       0.13888889       0.00000000 </v>
   <v>      -0.41666667       0.13888889       0.00000000 </v>
   <v>      -0.36111111       0.13888889       0.00000000 </v>
   <v>      -0.30555556       0.13888889       0.00000000 </v>
   <v>      -0.25000000       0.13888889       0.00000000 </v>
   <v>      -0.19444444       0.13888889       0.00000000 </v>
   <v>      -0.13888889       0.13888889       0.00000000 </v>
   <v>      -0.08333333       0.13888889       0.00000000 </v>
   <v>      -0.02777778       0.13888889       0.00000000 </v>
   <v>       0.02777778       0.19444444       0.00000000 </v>
   <v>       0.08333333       0.19444444       0.00000000 </v>
   <v>       0.13888889       0.19444444       0.00000000 </v>
   <v>       0.19444444       0.19444444       0.00000000 </v>
   <v>       0.25000000       0.19444444       0.00000000 </v>
   <v>       0.30555556       0.19444444       0.00000000 </v>
   <v>       0.36111111       0.19444444       0.00000000 </v>
   <v>       0.41666667       0.19444444       0.00000000 </v>
   <v>       0.47222222       0.19444444       0.00000000 </v>
   <v>      -0.47222222       0.19444444       0.00000000 </v>
   <v>      -0.41666667       0.19444444       0.00000000 </v>
   <v>      -0.36111111       0.19444444       0.00000000 </v>
   <v>      -0.30555556       0.19444444       0.00000000 </v>
   <v>      -0.25000000       0.19444444       0.00000000 </v>
   <v>      -0.19444444       0.19444444       0.00000000 </v>
   <v>      -0.13888889       0.19444444       0.00000000 </v>
   <v>      -0.08333333       0.19444444       0.00000000 </v>
   <v>      -0.02777778       0.19444444       0.00000000 </v>
   <v>       0.02777778       0.25000000       0.00000000 </v>
   <v>       0.08333333       0.25000000       0.00000000 </v>
   <v>       0.13888889       0.25000000       0.00000000 </v>
   <v>       0.19444444       0.25000000       0.00000000 </v>
   <v>       0.25000000       0.25000000       0.00000000 </v>
   <v>       0.30555556       0.25000000       0.00000000 </v>
   <v>       0.36111111       0.25000000       0.00000000 </v>
   <v>       0.41666667       0.25000000       0.00000000 </v>
   <v>       0.47222222       0.25000000       0.00000000 </v>
   <v>      -0.47222222       0.25000000       0.00000000 </v>
   <v>      -0.41666667       0.25000000       0.00000000 </v>
   <v>      -0.36111111       0.25000000       0.00000000 </v>
   <v>      -0.30555556       0.25000000       0.00000000 </v>
   <v>      -0.25000000       0.25000000       0.00000000 </v>
   <v>      -0.19444444       0.25000000       0.00000000 </v>
   <v>      -0.13888889       0.25000000       0.00000000 </v>
   <v>      -0.08333333       0.25000000       0.00000000 </v>
   <v>      -0.02777778       0.25000000       0.00000000 </v>
   <v>       0.02777778       0.30555556       0.00000000 </v>
   <v>       0.08333333       0.30555556       0.00000000 </v>
   <v>       0.13888889       0.30555556       0.00000000 </v>
   <v>       0.19444444       0.30555556       0.00000000 </v>
   <v>       0.25000000       0.30555556       0.00000000 </v>
   <v>       0.30555556       0.30555556       0.00000000 </v>
   <v>       0.36111111       0.30555556       0.00000000 </v>
   <v>       0.41666667       0.30555556       0.00000000 </v>
   <v>       0.47222222       0.30555556       0.00000000 </v>
   <v>      -0.47222222       0.30555556       0.00000000 </v>
   <v>      -0.41666667       0.30555556       0.00000000 </v>
   <v>      -0.36111111       0.30555556       0.00000000 </v>
   <v>      -0.30555556       0.30555556       0.00000000 </v>
   <v>      -0.25000000       0.30555556       0.00000000 </v>
   <v>      -0.19444444       0.30555556       0.00000000 </v>
   <v>      -0.13888889       0.30555556       0.00000000 </v>
   <v>      -0.08333333       0.30555556       0.00000000 </v>
   <v>      -0.02777778       0.30555556       0.00000000 </v>
   <v>       0.02777778       0.36111111       0.00000000 </v>
   <v>       0.08333333       0.36111111       0.00000000 </v>
   <v>       0.13888889       0.36111111       0.00000000 </v>
   <v>       0.19444444       0.36111111       0.00000000 </v>
   <v>       0.25000000       0.36111111       0.00000000 </v>
   <v>       0.30555556       0.36111111       0.00000000 </v>
   <v>       0.36111111       0.36111111       0.00000000 </v>
   <v>       0.41666667       0.36111111       0.00000000 </v>
   <v>       0.47222222       0.36111111       0.00000000 </v>
   <v>      -0.47222222       0.36111111       0.00000000 </v>
   <v>      -0.41666667       0.36111111       0.00000000 </v>
   <v>      -0.36111111       0.36111111       0.00000000 </v>
   <v>      -0.30555556       0.36111111       0.00000000 </v>
   <v>      -0.25000000       0.36111111       0.00000000 </v>
   <v>      -0.19444444       0.36111111       0.00000000 </v>
   <v>      -0.13888889       0.36111111       0.00000000 </v>
   <v>      -0.08333333       0.36111111       0.00000000 </v>
   <v>      -0.02777778       0.36111111       0.00000000 </v>
   <v>       0.02777778       0.41666667       0.00000000 </v>
   <v>       0.08333333       0.41666667       0.00000000 </v>
   <v>       0.13888889       0.41666667       0.00000000 </v>
   <v>       0.19444444       0.41666667       0.00000000 </v>
   <v>       0.25000000       0.41666667       0.00000000 </v>
   <v>       0.30555556       0.41666667       0.00000000 </v>
   <v>       0.36111111       0.41666667       0.00000000 </v>
   <v>       0.41666667       0.41666667       0.00000000 </v>
   <v>       0.47222222       0.41666667       0.00000000 </v>
   <v>      -0.47222222       0.41666667       0.00000000 </v>
   <v>      -0.41666667       0.41666667       0.00000000 </v>
   <v>      -0.36111111       0.41666667       0.00000000 </v>
   <v>      -0.30555556       0.41666667       0.00000000 </v>
   <v>      -0.25000000       0.41666667       0.00000000 </v>
   <v>      -0.19444444       0.41666667       0.00000000 </v>
   <v>      -0.13888889       0.41666667       0.00000000 </v>
   <v>      -0.08333333       0.41666667       0.00000000 </v>
   <v>      -0.02777778       0.41666667       0.00000000 </v>
   <v>       0.02777778       0.47222222       0.00000000 </v>
   <v>       0.08333333       0.47222222       0.00000000 </v>
   <v>       0.13888889       0.47222222       0.00000000 </v>
   <v>       0.19444444       0.47222222       0.00000000 </v>
   <v>       0.25000000       0.47222222       0.00000000 </v>
   <v>       0.30555556       0.47222222       0.00000000 </v>
   <v>       0.36111111       0.47222222       0.00000000 </v>
   <v>       0.41666667       0.47222222       0.00000000 </v>
   <v>       0.47222222       0.47222222       0.00000000 </v>
   <v>      -0.47222222       0.47222222       0.00000000 </v>
   <v>      -0.41666667       0.47222222       0.00000000 </v>
   <v>      -0.36111111       0.47222222       0.00000000 </v>
   <v>      -0.30555556       0.47222222       0.00000000 </v>
   <v>      -0.25000000       0.47222222       0.00000000 </v>
   <v>      -0.19444444       0.47222222       0.00000000 </v>
   <v>      -0.13888889       0.47222222       0.00000000 </v>
   <v>      -0.08333333       0.47222222       0.00000000 </v>
   <v>      -0.02777778       0.47222222       0.00000000 </v>
  </varray>
  <varray name="weights" >
   <v>       0.00617284 </v>
   <v>       0.00617284 </v>
   <v>       0.00617284 </v>
   <v>       0.00617284 </v>
   <v>       0.00617284 </v>
   <v>       0.00617284 </v>
   <v>       0.00617284 </v>
   <v>       0.00617284 </v>
   <v>       0.00617284 </v>
   <v>       0.00617284 </v>
   <v>       0.00617284 </v>
   <v>       0.00617284 </v>
   <v>       0.00617284 </v>
   <v>       0.00617284 </v>
   <v>       0.00617284 </v>
   <v>       0.00617284 </v>
   <v>       0.00617284 </v>
   <v>       0.00617284 </v>
   <v>       0.00617284 </v>
   <v>       0.00617284 </v>
   <v>       0.00617284 </v>
   <v>       0.00617284 </v>
   <v>       0.00617284 </v>
   <v>       0.00617284 </v>
   <v>       0.00617284 </v>
   <v>       0.00617284 </v>
   <v>       0.00617284 </v>
   <v>       0.00617284 </v>
   <v>       0.00617284 </v>
   <v>       0.00617284 </v>
   <v>       0.00617284 </v>
   <v>       0.00617284 </v>
   <v>       0.00617284 </v>
   <v>       0.00617284 </v>
   <v>       0.00617284 </v>
   <v>       0.00617284 </v>
   <v>       0.00617284 </v>
   <v>       0.00617284 </v>
   <v>       0.00617284 </v>
   <v>       0.00617284 </v>
   <v>       0.00617284 </v>
   <v>       0.00617284 </v>
   <v>       0.00617284 </v>
   <v>       0.00617284 </v>
   <v>       0.00617284 </v>
   <v>       0.00617284 </v>
   <v>       0.00617284 </v>
   <v>       0.00617284 </v>
   <v>       0.00617284 </v>
   <v>       0.00617284 </v>
   <v>       0.00617284 </v>
   <v>       0.00617284 </v>
   <v>       0.00617284 </v>
   <v>       0.00617284 </v>
   <v>       0.00617284 </v>
   <v>       0.00617284 </v>
   <v>       0.00617284 </v>
   <v>       0.00617284 </v>
   <v>       0.00617284 </v>
   <v>       0.00617284 </v>
   <v>       0.00617284 </v>
   <v>       0.00617284 </v>
   <v>       0.00617284 </v>
   <v>       0.00617284 </v>
   <v>       0.00617284 </v>
   <v>       0.00617284 </v>
   <v>       0.00617284 </v>
   <v>       0.00617284 </v>
   <v>       0.00617284 </v>
   <v>       0.00617284 </v>
   <v>       0.00617284 </v>
   <v>       0.00617284 </v>
   <v>       0.00617284 </v>
   <v>       0.00617284 </v>
   <v>       0.00617284 </v>
   <v>       0.00617284 </v>
   <v>       0.00617284 </v>
   <v>       0.00617284 </v>
   <v>       0.00617284 </v>
   <v>       0.00617284 </v>
   <v>       0.00617284 </v>
   <v>       0.00617284 </v>
   <v>       0.00617284 </v>
   <v>       0.00617284 </v>
   <v>       0.00617284 </v>
   <v>       0.00617284 </v>
   <v>       0.00617284 </v>
   <v>       0.00617284 </v>
   <v>       0.00617284 </v>
   <v>       0.00617284 </v>
   <v>       0.00617284 </v>
   <v>       0.00617284 </v>
   <v>       0.00617284 </v>
   <v>       0.00617284 </v>
   <v>       0.00617284 </v>
   <v>       0.00617284 </v>
   <v>       0.00617284 </v>
   <v>       0.00617284 </v>
   <v>       0.00617284 </v>
   <v>       0.00617284 </v>
   <v>       0.00617284 </v>
   <v>       0.00617284 </v>
   <v>       0.00617284 </v>
   <v>       0.00617284 </v>
   <v>       0.00617284 </v>
   <v>       0.00617284 </v>
   <v>       0.00617284 </v>
   <v>       0.00617284 </v>
   <v>       0.00617284 </v>
   <v>       0.00617284 </v>
   <v>       0.00617284 </v>
   <v>       0.00617284 </v>
   <v>       0.00617284 </v>
   <v>       0.00617284 </v>
   <v>       0.00617284 </v>
   <v>       0.00617284 </v>
   <v>       0.00617284 </v>
   <v>       0.00617284 </v>
   <v>       0.00617284 </v>
   <v>       0.00617284 </v>
   <v>       0.00617284 </v>
   <v>       0.00617284 </v>
   <v>       0.00617284 </v>
   <v>       0.00617284 </v>
   <v>       0.00617284 </v>
   <v>       0.00617284 </v>
   <v>       0.00617284 </v>
   <v>       0.00617284 </v>
   <v>       0.00617284 </v>
   <v>       0.00617284 </v>
   <v>       0.00617284 </v>
   <v>       0.00617284 </v>
   <v>       0.00617284 </v>
   <v>       0.00617284 </v>
   <v>       0.00617284 </v>
   <v>       0.00617284 </v>
   <v>       0.00617284 </v>
   <v>       0.00617284 </v>
   <v>       0.00617284 </v>
   <v>       0.00617284 </v>
   <v>       0.00617284 </v>
   <v>       0.00617284 </v>
   <v>       0.00617284 </v>
   <v>       0.00617284 </v>
   <v>       0.00617284 </v>
   <v>       0.00617284 </v>
   <v>       0.00617284 </v>
   <v>       0.00617284 </v>
   <v>       0.00617284 </v>
   <v>       0.00617284 </v>
   <v>       0.00617284 </v>
   <v>       0.00617284 </v>
   <v>       0.00617284 </v>
   <v>       0.00617284 </v>
   <v>       0.00617284 </v>
   <v>       0.00617284 </v>
   <v>       0.00617284 </v>
   <v>       0.00617284 </v>
   <v>       0.00617284 </v>
   <v>       0.00617284 </v>
   <v>       0.00617284 </v>
   <v>       0.00617284 </v>
  </varray>
 </kpoints>
 <parameters>
  <separator name="general" >
   <i type="string" name="SYSTEM">2D MoTe2 in a box</i>
   <i type="logical" name="LCOMPAT"> F  </i>
  </separator>
  <separator name="electronic" >
   <i type="string" name="PREC">accura</i>
   <i name="ENMAX">    350.00000000</i>
   <i name="ENAUG">    368.79200000</i>
   <i name="EDIFF">      0.00000100</i>
   <i type="int" name="IALGO">    38</i>
   <i type="int" name="IWAVPR">    11</i>
   <i type="int" name="NBANDS">    24</i>
   <i name="NELECT">     35.98000000</i>
   <i type="int" name="TURBO">     0</i>
   <i type="int" name="IRESTART">     0</i>
   <i type="int" name="NREBOOT">     0</i>
   <i type="int" name="NMIN">     0</i>
   <i name="EREF">      0.00000000</i>
   <separator name="electronic smearing" >
    <i type="int" name="ISMEAR">    -1</i>
    <i name="SIGMA">      0.00862174</i>
    <i name="KSPACING">      0.50000000</i>
    <i type="logical" name="KGAMMA"> T  </i>
   </separator>
   <separator name="electronic projectors" >
    <i type="logical" name="LREAL"> F  </i>
    <v name="ROPT">      0.00000000      0.00000000</v>
    <i type="int" name="LMAXPAW">  -100</i>
    <i type="int" name="LMAXMIX">     2</i>
    <i type="logical" name="NLSPLINE"> F  </i>
   </separator>
   <separator name="electronic startup" >
    <i type="int" name="ISTART">     0</i>
    <i type="int" name="ICHARG">     2</i>
    <i type="int" name="INIWAV">     1</i>
   </separator>
   <separator name="electronic spin" >
    <i type="int" name="ISPIN">     1</i>
    <i type="logical" name="LNONCOLLINEAR"> F  </i>
    <v name="MAGMOM">      1.00000000      1.00000000      1.00000000      1.00000000      1.00000000      1.00000000</v>
    <i name="NUPDOWN">     -1.00000000</i>
    <i type="logical" name="LSORBIT"> F  </i>
    <v name="SAXIS">      0.00000000      0.00000000      1.00000000</v>
    <i type="logical" name="LSPIRAL"> F  </i>
    <v name="QSPIRAL">      0.00000000      0.00000000      0.00000000</v>
    <i type="logical" name="LZEROZ"> F  </i>
   </separator>
   <separator name="electronic exchange-correlation" >
    <i type="logical" name="LASPH"> F  </i>
    <i type="logical" name="LMETAGGA"> F  </i>
   </separator>
   <separator name="electronic convergence" >
    <i type="int" name="NELM">    60</i>
    <i type="int" name="NELMDL">    -5</i>
    <i type="int" name="NELMIN">     2</i>
    <i name="ENINI">    350.00000000</i>
    <separator name="electronic convergence detail" >
     <i type="logical" name="LDIAG"> T  </i>
     <i type="logical" name="LSUBROT"> F  </i>
     <i name="WEIMIN">      0.00100000</i>
     <i name="EBREAK">      0.00000001</i>
     <i name="DEPER">      0.30000000</i>
     <i type="int" name="NRMM">     4</i>
     <i name="TIME">      0.40000000</i>
    </separator>
   </separator>
   <separator name="electronic mixer" >
    <i name="AMIX">      0.40000000</i>
    <i name="BMIX">      1.00000000</i>
    <i name="AMIN">      0.10000000</i>
    <i name="AMIX_MAG">      1.60000000</i>
    <i name="BMIX_MAG">      1.00000000</i>
    <separator name="electronic mixer details" >
     <i type="int" name="IMIX">     4</i>
     <i type="int" name="MAXMIX">   -45</i>
     <i name="WC">    100.00000000</i>
     <i type="int" name="INIMIX">     1</i>
     <i type="int" name="MIXPRE">     1</i>
     <i type="int" name="MREMOVE">     5</i>
    </separator>
   </separator>
   <separator name="electronic dipolcorrection" >
    <i type="logical" name="LDIPOL"> F  </i>
    <i type="logical" name="LMONO"> F  </i>
    <i type="int" name="IDIPOL">     0</i>
    <i name="EPSILON">      1.00000000</i>
    <v name="DIPOL">   -100.00000000   -100.00000000   -100.00000000</v>
    <i name="EFIELD">      0.00000000</i>
   </separator>
  </separator>
  <separator name="grids" >
   <i type="int" name="NGX">    24</i>
   <i type="int" name="NGY">    40</i>
   <i type="int" name="NGZ">    98</i>
   <i type="int" name="NGXF">    48</i>
   <i type="int" name="NGYF">    80</i>
   <i type="int" name="NGZF">   196</i>
   <i type="logical" name="ADDGRID"> F  </i>
  </separator>
  <separator name="ionic" >
   <i type="int" name="NSW">  1000</i>
   <i type="int" name="IBRION">     2</i>
   <i type="int" name="ISIF">     2</i>
   <i name="PSTRESS">      0.00000000</i>
   <i name="EDIFFG">      0.00001000</i>
   <i type="int" name="NFREE">     1</i>
   <i name="POTIM">      0.50000000</i>
   <i name="SMASS">     -3.00000000</i>
   <i name="SCALEE">      1.00000000</i>
  </separator>
  <separator name="ionic md" >
   <i name="TEBEG">      0.00010000</i>
   <i name="TEEND">      0.00010000</i>
   <i type="int" name="NBLOCK">     1</i>
   <i type="int" name="KBLOCK">  1000</i>
   <i type="int" name="NPACO">   256</i>
   <i name="APACO">     16.00000000</i>
  </separator>
  <separator name="symmetry" >
   <i type="int" name="ISYM">     0</i>
   <i name="SYMPREC">      0.00001000</i>
  </separator>
  <separator name="dos" >
   <i type="logical" name="LORBIT"> F  </i>
   <v name="RWIGS">     -1.00000000     -1.00000000</v>
   <i type="int" name="NEDOS">   301</i>
   <i name="EMIN">     10.00000000</i>
   <i name="EMAX">    -10.00000000</i>
   <i name="EFERMI">      0.00000000</i>
  </separator>
  <separator name="writing" >
   <i type="int" name="NWRITE">     3</i>
   <i type="logical" name="LWAVE"> F  </i>
   <i type="logical" name="LCHARG"> F  </i>
   <i type="logical" name="LPARD"> F  </i>
   <i type="logical" name="LVTOT"> F  </i>
   <i type="logical" name="LVHAR"> F  </i>
   <i type="logical" name="LELF"> F  </i>
   <i type="logical" name="LOPTICS"> F  </i>
   <v name="STM">      0.00000000      0.00000000      0.00000000      0.00000000      0.00000000      0.00000000      0.00000000</v>
  </separator>
  <separator name="performance" >
   <i type="int" name="NPAR">     8</i>
   <i type="int" name="NSIM">     4</i>
   <i type="int" name="NBLK">    -1</i>
   <i type="logical" name="LPLANE"> T  </i>
   <i type="logical" name="LSCALAPACK"> T  </i>
   <i type="logical" name="LSCAAWARE"> F  </i>
   <i type="logical" name="LSCALU"> F  </i>
   <i type="logical" name="LASYNC"> F  </i>
   <i type="logical" name="LORBITALREAL"> F  </i>
  </separator>
  <separator name="miscellaneous" >
   <i type="int" name="IDIOT">     3</i>
   <i type="logical" name="LMUSIC"> F  </i>
   <v name="POMASS">    127.60000000     95.94000000</v>
   <v name="DARWINR">      0.00000000      0.00000000</v>
   <v name="DARWINV">      1.00000000      1.00000000</v>
   <i type="logical" name="LCORR"> T  </i>
  </separator>
  <i type="logical" name="GGA_COMPAT"> T  </i>
  <i type="logical" name="LBERRY"> F  </i>
  <i type="int" name="ICORELEVEL">     0</i>
  <i type="logical" name="LDAU"> F  </i>
  <i type="int" name="I_CONSTRAINED_M">     0</i>
  <separator name="electronic exchange-correlation" >
   <i type="string" name="GGA">--</i>
   <i type="int" name="VOSKOWN">     0</i>
   <i type="logical" name="LHFCALC"> F  </i>
   <i type="string" name="PRECFOCK"></i>
   <i type="logical" name="LSYMGRAD"> F  </i>
   <i type="logical" name="LHFONE"> F  </i>
   <i type="logical" name="LRHFCALC"> F  </i>
   <i type="logical" name="LTHOMAS"> F  </i>
   <i type="logical" name="LMODELHF"> F  </i>
   <i name="ENCUT4O">     -1.00000000</i>
   <i type="int" name="EXXOEP">     0</i>
   <i type="int" name="FOURORBIT">     0</i>
   <i name="AEXX">      0.00000000</i>
   <i name="HFALPHA">      0.00000000</i>
   <i name="MCALPHA">      0.00000000</i>
   <i name="ALDAX">      1.00000000</i>
   <i name="AGGAX">      1.00000000</i>
   <i name="ALDAC">      1.00000000</i>
   <i name="AGGAC">      1.00000000</i>
   <i type="int" name="NKREDX">     1</i>
   <i type="int" name="NKREDY">     1</i>
   <i type="int" name="NKREDZ">     1</i>
   <i type="logical" name="SHIFTRED"> F  </i>
   <i type="logical" name="ODDONLY"> F  </i>
   <i type="logical" name="EVENONLY"> F  </i>
   <i type="int" name="LMAXFOCK">     0</i>
   <i type="int" name="NMAXFOCKAE">     0</i>
   <i type="logical" name="LFOCKAEDFT"> F  </i>
   <i name="HFSCREEN">      0.00000000</i>
   <i name="HFSCREENC">      0.00000000</i>
   <i type="int" name="NBANDSGWLOW">     0</i>
  </separator>
  <separator name="vdW DFT" >
   <i type="logical" name="LUSE_VDW"> F  </i>
   <i name="Zab_VDW">     -0.84910000</i>
   <i name="PARAM1">      0.12340000</i>
   <i name="PARAM2">      1.00000000</i>
   <i name="PARAM3">      0.00000000</i>
  </separator>
  <separator name="model GW" >
   <i type="int" name="MODEL_GW">     0</i>
   <i name="MODEL_EPS0">     34.93615840</i>
   <i name="MODEL_ALPHA">      1.00000000</i>
  </separator>
  <separator name="linear response parameters" >
   <i type="logical" name="LEPSILON"> F  </i>
   <i type="logical" name="LRPA"> F  </i>
   <i type="logical" name="LNABLA"> F  </i>
   <i type="logical" name="LVEL"> F  </i>
   <i type="int" name="KINTER">     0</i>
   <i name="CSHIFT">      0.10000000</i>
   <i name="OMEGAMAX">     -1.00000000</i>
   <i name="DEG_THRESHOLD">      0.00200000</i>
  </separator>
  <separator name="orbital magnetization" >
   <i type="logical" name="NUCIND"> F  </i>
   <v name="MAGPOS">      0.00000000      0.00000000      0.00000000</v>
   <i type="logical" name="LNICSALL"> T  </i>
   <i type="logical" name="ORBITALMAG"> F  </i>
   <i type="logical" name="LMAGBLOCH"> F  </i>
   <i type="logical" name="LCHIMAG"> F  </i>
   <i type="logical" name="LGAUGE"> T  </i>
   <i type="int" name="MAGATOM">     0</i>
   <v name="MAGDIPOL">      0.00000000      0.00000000      0.00000000</v>
   <v name="AVECCONST">      0.00000000      0.00000000      0.00000000</v>
  </separator>
  <separator name="response functions" >
   <i type="logical" name="LADDER"> F  </i>
   <i type="logical" name="LFXC"> F  </i>
   <i type="logical" name="LHARTREE"> T  </i>
   <i type="int" name="IBSE">     0</i>
   <i type="logical" name="LTCTE"> F  </i>
   <i type="logical" name="LTETE"> F  </i>
   <i type="logical" name="LTRIPLET"> F  </i>
   <i type="logical" name="LFXCEPS"> F  </i>
   <i type="logical" name="LFXHEG"> F  </i>
   <i type="logical" name="L2ORDER"> F  </i>
   <i type="logical" name="LUSEW"> F  </i>
   <i name="ENCUTGW">     -2.00000000</i>
   <i name="ENCUTGWSOFT">     -2.00000000</i>
   <i name="ENCUTLF">     -1.00000000</i>
   <i type="int" name="LMAXMP2">    -1</i>
   <i name="SCISSOR">      0.00000000</i>
   <i type="int" name="NOMEGA">     0</i>
   <i type="int" name="NOMEGAR">     0</i>
   <i type="int" name="NBANDSGW">    -1</i>
   <i type="int" name="NBANDSO">    -1</i>
   <i type="int" name="NBANDSV">    -1</i>
   <i type="int" name="NELM">     1</i>
   <i type="int" name="DIM">     3</i>
   <i type="int" name="ANTIRES">     0</i>
   <i name="OMEGAMAX">    -30.00000000</i>
   <i name="OMEGAMIN">    -30.00000000</i>
   <i name="OMEGATL">   -200.00000000</i>
   <i type="int" name="OMEGAGRID">     0</i>
   <i name="CSHIFT">     -0.10000000</i>
   <i type="logical" name="SELFENERGY"> F  </i>
   <i type="logical" name="LSPECTRAL"> F  </i>
   <i type="logical" name="ODDONLYGW"> F  </i>
   <i type="logical" name="EVENONLYGW"> F  </i>
   <i type="int" name="NKREDLFX">     1</i>
   <i type="int" name="NKREDLFY">     1</i>
   <i type="int" name="NKREDLFZ">     1</i>
   <i type="int" name="MAXMEM">  1800</i>
   <i type="int" name="TELESCOPE">     0</i>
   <i type="int" name="TAUPAR">     1</i>
  </separator>
  <separator name="External order field" >
   <i name="OFIELD_KAPPA">      0.00000000</i>
   <v name="OFIELD_K">      0.00000000      0.00000000      0.00000000</v>
   <i name="OFIELD_Q6_NEAR">      0.00000000</i>
   <i name="OFIELD_Q6_FAR">      0.00000000</i>
   <i name="OFIELD_A">      0.00000000</i>
  </separator>
 </parameters>
 <atominfo>
  <atoms>       6 </atoms>
  <types>       2 </types>
  <array name="atoms" >
   <dimension dim="1">ion</dimension>
   <field type="string">element</field>
   <field type="int">atomtype</field>
   <set>
    <rc><c>Te</c><c>   1</c></rc>
    <rc><c>Te</c><c>   1</c></rc>
    <rc><c>Te</c><c>   1</c></rc>
    <rc><c>Te</c><c>   1</c></rc>
    <rc><c>Mo</c><c>   2</c></rc>
    <rc><c>Mo</c><c>   2</c></rc>
   </set>
  </array>
  <array name="atomtypes" >
   <dimension dim="1">type</dimension>
   <field type="int">atomspertype</field>
   <field type="string">element</field>
   <field>mass</field>
   <field>valence</field>
   <field type="string">pseudopotential</field>
   <set>
    <rc><c>   4</c><c>Te</c><c>    127.60000000</c><c>      6.00000000</c><c>  PAW_PBE Te 08Apr2002                  </c></rc>
    <rc><c>   2</c><c>Mo</c><c>     95.94000000</c><c>      6.00000000</c><c>  PAW_PBE Mo 08Apr2002                  </c></rc>
   </set>
  </array>
 </atominfo>
 <structure name="initialpos" >
  <crystal>
   <varray name="basis" >
    <v>       3.55100000       0.00000000       0.00000000 </v>
    <v>       0.00000000       6.14900000       0.00000000 </v>
    <v>       0.00000000       0.00000000      16.00000000 </v>
   </varray>
   <i name="volume">    349.36158400 </i>
   <varray name="rec_basis" >
    <v>       0.28161081       0.00000000       0.00000000 </v>
    <v>       0.00000000       0.16262807       0.00000000 </v>
    <v>       0.00000000       0.00000000       0.06250000 </v>
   </varray>
  </crystal>
  <varray name="positions" >
   <v>       0.00000000       0.66665962       0.11282875 </v>
   <v>       0.00000000       0.66665962       0.88717125 </v>
   <v>       0.50000000       0.16665799       0.11282750 </v>
   <v>       0.50000000       0.16665799       0.88717250 </v>
   <v>       0.50000000       0.50001464       0.00000000 </v>
   <v>       0.00000000       0.00000813       0.00000000 </v>
  </varray>
 </structure>
 <calculation>
  <scstep>
   <time name="dav">    3.11    3.11</time>
   <time name="total">    3.16    3.16</time>
   <energy>
    <i name="alphaZ">     25.36157480 </i>
    <i name="ewald">   1695.32331395 </i>
    <i name="hartreedc">  -2977.11215032 </i>
    <i name="XCdc">   -233.75808350 </i>
    <i name="pawpsdc">   1362.14282323 </i>
    <i name="pawaedc">  -1065.87210056 </i>
    <i name="eentropy">     -0.00075895 </i>
    <i name="bandstr">     53.07150327 </i>
    <i name="atom">   1328.10454569 </i>
    <i name="e_fr_energy">    187.26066761 </i>
    <i name="e_wo_entrp">    187.26142656 </i>
    <i name="e_0_energy">    187.26104708 </i>
   </energy>
  </scstep>
  <scstep>
   <time name="dav">    3.85    3.85</time>
   <time name="total">    3.90    3.90</time>
   <energy>
    <i name="e_fr_energy">    -17.93377341 </i>
    <i name="e_wo_entrp">    -17.93361025 </i>
    <i name="e_0_energy">    -17.93369183 </i>
   </energy>
  </scstep>
  <scstep>
   <time name="dav">    3.61    3.61</time>
   <time name="total">    3.66    3.66</time>
   <energy>
    <i name="e_fr_energy">    -36.80077333 </i>
    <i name="e_wo_entrp">    -36.80047540 </i>
    <i name="e_0_energy">    -36.80062436 </i>
   </energy>
  </scstep>
  <scstep>
   <time name="dav">    4.21    4.21</time>
   <time name="total">    4.26    4.26</time>
   <energy>
    <i name="e_fr_energy">    -37.48701615 </i>
    <i name="e_wo_entrp">    -37.48671769 </i>
    <i name="e_0_energy">    -37.48686692 </i>
   </energy>
  </scstep>
  <scstep>
   <time name="dav">    3.71    3.71</time>
   <time name="total">    3.87    3.87</time>
   <energy>
    <i name="e_fr_energy">    -37.49712971 </i>
    <i name="e_wo_entrp">    -37.49683137 </i>
    <i name="e_0_energy">    -37.49698054 </i>
   </energy>
  </scstep>
  <scstep>
   <time name="dav">    3.50    3.50</time>
   <time name="total">    3.69    3.70</time>
   <energy>
    <i name="e_fr_energy">    -36.66555312 </i>
    <i name="e_wo_entrp">    -36.66507048 </i>
    <i name="e_0_energy">    -36.66531180 </i>
   </energy>
  </scstep>
  <scstep>
   <time name="dav">    3.64    3.66</time>
   <time name="total">    3.83    3.85</time>
   <energy>
    <i name="e_fr_energy">    -36.63291715 </i>
    <i name="e_wo_entrp">    -36.63261270 </i>
    <i name="e_0_energy">    -36.63276493 </i>
   </energy>
  </scstep>
  <scstep>
   <time name="dav">    3.57    3.57</time>
   <time name="total">    3.76    3.77</time>
   <energy>
    <i name="e_fr_energy">    -36.09208944 </i>
    <i name="e_wo_entrp">    -36.09177153 </i>
    <i name="e_0_energy">    -36.09193049 </i>
   </energy>
  </scstep>
  <scstep>
   <time name="dav">    3.67    3.67</time>
   <time name="total">    3.86    3.86</time>
   <energy>
    <i name="e_fr_energy">    -36.06551423 </i>
    <i name="e_wo_entrp">    -36.06518913 </i>
    <i name="e_0_energy">    -36.06535168 </i>
   </energy>
  </scstep>
  <scstep>
   <time name="dav">    3.69    3.69</time>
   <time name="total">    3.89    3.89</time>
   <energy>
    <i name="e_fr_energy">    -36.06092722 </i>
    <i name="e_wo_entrp">    -36.06060406 </i>
    <i name="e_0_energy">    -36.06076564 </i>
   </energy>
  </scstep>
  <scstep>
   <time name="dav">    3.79    3.79</time>
   <time name="total">    3.98    3.98</time>
   <energy>
    <i name="e_fr_energy">    -36.06020494 </i>
    <i name="e_wo_entrp">    -36.05988077 </i>
    <i name="e_0_energy">    -36.06004286 </i>
   </energy>
  </scstep>
  <scstep>
   <time name="dav">    3.78    3.78</time>
   <time name="total">    3.98    3.98</time>
   <energy>
    <i name="e_fr_energy">    -36.05971003 </i>
    <i name="e_wo_entrp">    -36.05938648 </i>
    <i name="e_0_energy">    -36.05954825 </i>
   </energy>
  </scstep>
  <scstep>
   <time name="dav">    3.81    3.81</time>
   <time name="total">    4.01    4.01</time>
   <energy>
    <i name="e_fr_energy">    -36.05961255 </i>
    <i name="e_wo_entrp">    -36.05928904 </i>
    <i name="e_0_energy">    -36.05945079 </i>
   </energy>
  </scstep>
  <scstep>
   <time name="dav">    3.31    3.31</time>
   <time name="total">    3.50    3.50</time>
   <energy>
    <i name="e_fr_energy">    -36.05921363 </i>
    <i name="e_wo_entrp">    -36.05889019 </i>
    <i name="e_0_energy">    -36.05905191 </i>
   </energy>
  </scstep>
  <scstep>
   <time name="dav">    4.01    4.03</time>
   <time name="total">    4.20    4.23</time>
   <energy>
    <i name="e_fr_energy">    -36.05925344 </i>
    <i name="e_wo_entrp">    -36.05893007 </i>
    <i name="e_0_energy">    -36.05909176 </i>
   </energy>
  </scstep>
  <scstep>
   <time name="dav">    3.32    3.32</time>
   <time name="total">    3.52    3.52</time>
   <energy>
    <i name="e_fr_energy">    -36.05941688 </i>
    <i name="e_wo_entrp">    -36.05909353 </i>
    <i name="e_0_energy">    -36.05925520 </i>
   </energy>
  </scstep>
  <scstep>
   <time name="dav">    3.33    3.33</time>
   <time name="total">    3.53    3.53</time>
   <energy>
    <i name="e_fr_energy">    -36.05955460 </i>
    <i name="e_wo_entrp">    -36.05923123 </i>
    <i name="e_0_energy">    -36.05939291 </i>
   </energy>
  </scstep>
  <scstep>
   <time name="dav">    3.56    3.56</time>
   <time name="total">    3.76    3.76</time>
   <energy>
    <i name="e_fr_energy">    -36.05965850 </i>
    <i name="e_wo_entrp">    -36.05933511 </i>
    <i name="e_0_energy">    -36.05949680 </i>
   </energy>
  </scstep>
  <scstep>
   <time name="dav">    2.88    2.88</time>
   <time name="total">    3.08    3.08</time>
   <energy>
    <i name="e_fr_energy">    -36.05972724 </i>
    <i name="e_wo_entrp">    -36.05940384 </i>
    <i name="e_0_energy">    -36.05956554 </i>
   </energy>
  </scstep>
  <scstep>
   <time name="dav">    2.95    2.95</time>
   <time name="total">    3.14    3.14</time>
   <energy>
    <i name="e_fr_energy">    -36.05974124 </i>
    <i name="e_wo_entrp">    -36.05941784 </i>
    <i name="e_0_energy">    -36.05957954 </i>
   </energy>
  </scstep>
  <scstep>
   <time name="dav">    2.58    2.58</time>
   <time name="total">    2.78    2.78</time>
   <energy>
    <i name="e_fr_energy">    -36.05974406 </i>
    <i name="e_wo_entrp">    -36.05942066 </i>
    <i name="e_0_energy">    -36.05958236 </i>
   </energy>
  </scstep>
  <scstep>
   <time name="dav">    2.43    2.43</time>
   <time name="total">    2.52    2.52</time>
   <energy>
    <i name="alphaZ">     25.36157480 </i>
    <i name="ewald">   1695.32331395 </i>
    <i name="hartreedc">  -2994.14976012 </i>
    <i name="XCdc">   -232.33513590 </i>
    <i name="pawpsdc">   2731.94044024 </i>
    <i name="pawaedc">  -2438.17284833 </i>
    <i name="eentropy">     -0.00032339 </i>
    <i name="bandstr">   -152.13155156 </i>
    <i name="atom">   1328.10454569 </i>
    <i name="e_fr_energy">    -36.05974462 </i>
    <i name="e_wo_entrp">    -36.05942122 </i>
    <i name="e_0_energy">    -36.05958292 </i>
   </energy>
  </scstep>
  <structure>
   <crystal>
    <varray name="basis" >
     <v>       3.55100000       0.00000000       0.00000000 </v>
     <v>       0.00000000       6.14900000       0.00000000 </v>
     <v>       0.00000000       0.00000000      16.00000000 </v>
    </varray>
    <i name="volume">    349.36158400 </i>
    <varray name="rec_basis" >
     <v>       0.28161081       0.00000000       0.00000000 </v>
     <v>       0.00000000       0.16262807       0.00000000 </v>
     <v>       0.00000000       0.00000000       0.06250000 </v>
    </varray>
   </crystal>
   <varray name="positions" >
    <v>       0.00000000       0.66665962       0.11282875 </v>
    <v>       0.00000000       0.66665962       0.88717125 </v>
    <v>       0.50000000       0.16665799       0.11282750 </v>
    <v>       0.50000000       0.16665799       0.88717250 </v>
    <v>       0.50000000       0.50001464       0.00000000 </v>
    <v>       0.00000000       0.00000813       0.00000000 </v>
   </varray>
  </structure>
  <varray name="forces" >
   <v>      -0.00000000      -0.00007972       0.00847031 </v>
   <v>       0.00000001      -0.00007978      -0.00847046 </v>
   <v>      -0.00000005       0.00005272       0.00845961 </v>
   <v>      -0.00000009       0.00005270      -0.00845974 </v>
   <v>       0.00000014      -0.00015666       0.00000022 </v>
   <v>       0.00000000       0.00021073       0.00000007 </v>
  </varray>
  <varray name="stress" >
   <v>      -1.15863288       0.00000029      -0.00000020 </v>
   <v>       0.00000036      -1.07363476      -0.00000117 </v>
   <v>      -0.00000017      -0.00000099      -0.71062913 </v>
  </varray>
  <energy>
   <i name="e_fr_energy">    -36.05974462 </i>
   <i name="e_wo_entrp">    -36.05958292 </i>
   <i name="e_0_energy">     -0.00032339 </i>
  </energy>
  <time name="totalsc">   81.52   81.61</time>
 </calculation>
 <calculation>
  <scstep>
   <time name="dav">    3.09    3.09</time>
   <time name="total">    3.26    3.26</time>
   <energy>
    <i name="alphaZ">     25.36157480 </i>
    <i name="ewald">   1694.70941118 </i>
    <i name="hartreedc">  -2993.55907436 </i>
    <i name="XCdc">   -232.33848582 </i>
    <i name="pawpsdc">   2731.95400844 </i>
    <i name="pawaedc">  -2438.18642442 </i>
    <i name="eentropy">     -0.00032345 </i>
    <i name="bandstr">   -152.10498476 </i>
    <i name="atom">   1328.10454569 </i>
    <i name="e_fr_energy">    -36.05975270 </i>
    <i name="e_wo_entrp">    -36.05942925 </i>
    <i name="e_0_energy">    -36.05959097 </i>
   </energy>
  </scstep>
  <scstep>
   <time name="dav">    3.45    3.47</time>
   <time name="total">    3.64    3.67</time>
   <energy>
    <i name="e_fr_energy">    -36.05975311 </i>
    <i name="e_wo_entrp">    -36.05942964 </i>
    <i name="e_0_energy">    -36.05959138 </i>
   </energy>
  </scstep>
  <scstep>
   <time name="dav">    2.34    2.34</time>
   <time name="total">    2.43    2.43</time>
   <energy>
    <i name="alphaZ">     25.36157480 </i>
    <i name="ewald">   1694.70941118 </i>
    <i name="hartreedc">  -2993.55902969 </i>
    <i name="XCdc">   -232.33819407 </i>
    <i name="pawpsdc">   2731.31152350 </i>
    <i name="pawaedc">  -2437.54289272 </i>
    <i name="eentropy">     -0.00032346 </i>
    <i name="bandstr">   -152.10636797 </i>
    <i name="atom">   1328.10454569 </i>
    <i name="e_fr_energy">    -36.05975273 </i>
    <i name="e_wo_entrp">    -36.05942927 </i>
    <i name="e_0_energy">    -36.05959100 </i>
   </energy>
  </scstep>
  <structure>
   <crystal>
    <varray name="basis" >
     <v>       3.55100000       0.00000000       0.00000000 </v>
     <v>       0.00000000       6.14900000       0.00000000 </v>
     <v>       0.00000000       0.00000000      16.00000000 </v>
    </varray>
    <i name="volume">    349.36158400 </i>
    <varray name="rec_basis" >
     <v>       0.28161081       0.00000000       0.00000000 </v>
     <v>       0.00000000       0.16262807       0.00000000 </v>
     <v>       0.00000000       0.00000000       0.06250000 </v>
    </varray>
   </crystal>
   <varray name="positions" >
    <v>      -0.00000000       0.66665899       0.11285429 </v>
    <v>       0.00000000       0.66665899       0.88714571 </v>
    <v>       0.50000000       0.16665841       0.11285301 </v>
    <v>       0.50000000       0.16665841       0.88714699 </v>
    <v>       0.50000000       0.50001341       0.00000000 </v>
    <v>       0.00000000       0.00000978       0.00000000 </v>
   </varray>
  </structure>
  <varray name="forces" >
   <v>      -0.00000002      -0.00003653       0.00279230 </v>
   <v>       0.00000003      -0.00003668      -0.00279206 </v>
   <v>       0.00000005       0.00003405       0.00290154 </v>
   <v>       0.00000001       0.00003428      -0.00290141 </v>
   <v>      -0.00000007      -0.00004728      -0.00000019 </v>
   <v>      -0.00000000       0.00005215      -0.00000019 </v>
  </varray>
  <varray name="stress" >
   <v>      -1.23611465       0.00000067      -0.00000025 </v>
   <v>       0.00000074      -1.15135858      -0.00000007 </v>
   <v>      -0.00000008      -0.00000007      -0.89750129 </v>
  </varray>
  <energy>
   <i name="e_fr_energy">    -36.05975273 </i>
   <i name="e_wo_entrp">    -36.05959100 </i>
   <i name="e_0_energy">     -0.00032346 </i>
  </energy>
  <time name="totalsc">   10.98   11.02</time>
 </calculation>
 <calculation>
  <scstep>
   <time name="dav">    3.11    3.11</time>
   <time name="total">    3.25    3.25</time>
   <energy>
    <i name="alphaZ">     25.36157480 </i>
    <i name="ewald">   1694.39837038 </i>
    <i name="hartreedc">  -2993.25945547 </i>
    <i name="XCdc">   -232.33972854 </i>
    <i name="pawpsdc">   2731.13406415 </i>
    <i name="pawaedc">  -2437.36483677 </i>
    <i name="eentropy">     -0.00032350 </i>
    <i name="bandstr">   -152.09396365 </i>
    <i name="atom">   1328.10454569 </i>
    <i name="e_fr_energy">    -36.05975292 </i>
    <i name="e_wo_entrp">    -36.05942942 </i>
    <i name="e_0_energy">    -36.05959117 </i>
   </energy>
  </scstep>
  <scstep>
   <time name="dav">    3.13    3.13</time>
   <time name="total">    3.22    3.22</time>
   <energy>
    <i name="alphaZ">     25.36157480 </i>
    <i name="ewald">   1694.39837038 </i>
    <i name="hartreedc">  -2993.26115277 </i>
    <i name="XCdc">   -232.33964282 </i>
    <i name="pawpsdc">   2730.83731142 </i>
    <i name="pawaedc">  -2437.06768811 </i>
    <i name="eentropy">     -0.00032350 </i>
    <i name="bandstr">   -152.09274799 </i>
    <i name="atom">   1328.10454569 </i>
    <i name="e_fr_energy">    -36.05975290 </i>
    <i name="e_wo_entrp">    -36.05942940 </i>
    <i name="e_0_energy">    -36.05959115 </i>
   </energy>
  </scstep>
  <structure>
   <crystal>
    <varray name="basis" >
     <v>       3.55100000       0.00000000       0.00000000 </v>
     <v>       0.00000000       6.14900000       0.00000000 </v>
     <v>       0.00000000       0.00000000      16.00000000 </v>
    </varray>
    <i name="volume">    349.36158400 </i>
    <varray name="rec_basis" >
     <v>       0.28161081       0.00000000       0.00000000 </v>
     <v>       0.00000000       0.16262807       0.00000000 </v>
     <v>       0.00000000       0.00000000       0.06250000 </v>
    </varray>
   </crystal>
   <varray name="positions" >
    <v>      -0.00000000       0.66665868       0.11286723 </v>
    <v>       0.00000000       0.66665868       0.88713277 </v>
    <v>       0.50000000       0.16665862       0.11286593 </v>
    <v>       0.50000000       0.16665862       0.88713407 </v>
    <v>       0.50000000       0.50001278       0.00000000 </v>
    <v>       0.00000000       0.00001062       0.00000000 </v>
   </varray>
  </structure>
  <varray name="forces" >
   <v>       0.00000015      -0.00011378       0.00005789 </v>
   <v>       0.00000013      -0.00011393      -0.00005733 </v>
   <v>       0.00000011       0.00013042       0.00033172 </v>
   <v>       0.00000010       0.00013058      -0.00033139 </v>
   <v>      -0.00000038      -0.00000505      -0.00000069 </v>
   <v>      -0.00000011      -0.00002824      -0.00000020 </v>
  </varray>
  <varray name="stress" >
   <v>      -1.26672660      -0.00000011       0.00000057 </v>
   <v>      -0.00000011      -1.18210007      -0.00000052 </v>
   <v>       0.00000060      -0.00000039      -0.99018347 </v>
  </varray>
  <energy>
   <i name="e_fr_energy">    -36.05975290 </i>
   <i name="e_wo_entrp">    -36.05959115 </i>
   <i name="e_0_energy">     -0.00032350 </i>
  </energy>
  <time name="totalsc">    7.96    7.96</time>
  <eigenvalues>
   <array>
    <dimension dim="1">band</dimension>
    <dimension dim="2">kpoint</dimension>
    <dimension dim="3">spin</dimension>
    <field>eigene</field>
    <field>occ</field>
    <set>
     <set comment="spin 1">
      <set comment="kpoint 1">
       <r>  -12.4656    1.0000 </r>
       <r>  -11.5674    1.0000 </r>
       <r>  -10.5655    1.0000 </r>
       <r>  -10.2340    1.0000 </r>
       <r>   -5.2603    1.0000 </r>
       <r>   -4.8248    1.0000 </r>
       <r>   -4.4262    1.0000 </r>
       <r>   -3.2200    1.0000 </r>
       <r>   -2.2223    1.0000 </r>
       <r>   -1.6429    1.0000 </r>
       <r>   -1.6089    1.0000 </r>
       <r>   -1.5753    1.0000 </r>
       <r>   -1.5286    1.0000 </r>
       <r>   -0.8270    1.0000 </r>
       <r>   -0.7971    1.0000 </r>
       <r>   -0.7293    1.0000 </r>
       <r>   -0.3895    1.0000 </r>
       <r>   -0.2219    1.0000 </r>
       <r>    1.4523    0.0000 </r>
       <r>    1.7798    0.0000 </r>
       <r>    3.1033    0.0000 </r>
       <r>    3.1666    0.0000 </r>
       <r>    3.3374    0.0000 </r>
       <r>    3.3643    0.0000 </r>
      </set>
      <set comment="kpoint 2">
       <r>  -12.4041    1.0000 </r>
       <r>  -11.5226    1.0000 </r>
       <r>  -10.5347    1.0000 </r>
       <r>  -10.2093    1.0000 </r>
       <r>   -5.1859    1.0000 </r>
       <r>   -4.7564    1.0000 </r>
       <r>   -4.4087    1.0000 </r>
       <r>   -3.1969    1.0000 </r>
       <r>   -2.3310    1.0000 </r>
       <r>   -1.7722    1.0000 </r>
       <r>   -1.7483    1.0000 </r>
       <r>   -1.5234    1.0000 </r>
       <r>   -1.5122    1.0000 </r>
       <r>   -1.1219    1.0000 </r>
       <r>   -0.9162    1.0000 </r>
       <r>   -0.7229    1.0000 </r>
       <r>   -0.3954    1.0000 </r>
       <r>   -0.1782    1.0000 </r>
       <r>    1.4787    0.0000 </r>
       <r>    1.8172    0.0000 </r>
       <r>    2.8330    0.0000 </r>
       <r>    2.9715    0.0000 </r>
       <r>    3.1847    0.0000 </r>
       <r>    3.2195    0.0000 </r>
      </set>
      <set comment="kpoint 3">
       <r>  -12.2830    1.0000 </r>
       <r>  -11.4343    1.0000 </r>
       <r>  -10.4780    1.0000 </r>
       <r>  -10.1640    1.0000 </r>
       <r>   -5.0397    1.0000 </r>
       <r>   -4.6244    1.0000 </r>
       <r>   -4.3818    1.0000 </r>
       <r>   -3.1614    1.0000 </r>
       <r>   -2.4992    1.0000 </r>
       <r>   -2.0072    1.0000 </r>
       <r>   -1.9704    1.0000 </r>
       <r>   -1.7012    1.0000 </r>
       <r>   -1.5077    1.0000 </r>
       <r>   -1.4270    1.0000 </r>
       <r>   -1.1100    1.0000 </r>
       <r>   -0.6364    1.0000 </r>
       <r>   -0.4190    1.0000 </r>
       <r>   -0.1468    1.0000 </r>
       <r>    1.4616    0.0000 </r>
       <r>    1.9392    0.0000 </r>
       <r>    2.4675    0.0000 </r>
       <r>    2.4899    0.0000 </r>
       <r>    2.6989    0.0000 </r>
       <r>    2.9800    0.0000 </r>
      </set>
      <set comment="kpoint 4">
       <r>  -12.1061    1.0000 </r>
       <r>  -11.3058    1.0000 </r>
       <r>  -10.4053    1.0000 </r>
       <r>  -10.1069    1.0000 </r>
       <r>   -4.8281    1.0000 </r>
       <r>   -4.4400    1.0000 </r>
       <r>   -4.3608    1.0000 </r>
       <r>   -3.1458    1.0000 </r>
       <r>   -2.6694    1.0000 </r>
       <r>   -2.3532    1.0000 </r>
       <r>   -2.3120    1.0000 </r>
       <r>   -2.1952    1.0000 </r>
       <r>   -1.5323    1.0000 </r>
       <r>   -1.4192    1.0000 </r>
       <r>   -1.3056    1.0000 </r>
       <r>   -0.5863    1.0000 </r>
       <r>   -0.4766    1.0000 </r>
       <r>   -0.1004    1.0000 </r>
       <r>    1.3766    0.0000 </r>
       <r>    2.0481    0.0000 </r>
       <r>    2.1409    0.0000 </r>
       <r>    2.1729    0.0000 </r>
       <r>    2.3081    0.0000 </r>
       <r>    2.6241    0.0000 </r>
      </set>
      <set comment="kpoint 5">
       <r>  -11.8799    1.0000 </r>
       <r>  -11.1421    1.0000 </r>
       <r>  -10.3330    1.0000 </r>
       <r>  -10.0510    1.0000 </r>
       <r>   -4.5659    1.0000 </r>
       <r>   -4.3605    1.0000 </r>
       <r>   -4.2250    1.0000 </r>
       <r>   -3.2784    1.0000 </r>
       <r>   -2.7933    1.0000 </r>
       <r>   -2.7417    1.0000 </r>
       <r>   -2.7385    1.0000 </r>
       <r>   -2.4351    1.0000 </r>
       <r>   -1.8162    1.0000 </r>
       <r>   -1.5797    1.0000 </r>
       <r>   -1.2169    1.0000 </r>
       <r>   -0.5979    1.0000 </r>
       <r>   -0.5525    1.0000 </r>
       <r>   -0.0270    0.9998 </r>
       <r>    1.2582    0.0000 </r>
       <r>    1.7103    0.0000 </r>
       <r>    2.0239    0.0000 </r>
       <r>    2.0620    0.0000 </r>
       <r>    2.2570    0.0000 </r>
       <r>    2.3625    0.0000 </r>
      </set>
      <set comment="kpoint 6">
       <r>  -11.6139    1.0000 </r>
       <r>  -10.9508    1.0000 </r>
       <r>  -10.2835    1.0000 </r>
       <r>  -10.0138    1.0000 </r>
       <r>   -4.3774    1.0000 </r>
       <r>   -4.3116    1.0000 </r>
       <r>   -4.0321    1.0000 </r>
       <r>   -3.6035    1.0000 </r>
       <r>   -3.1007    1.0000 </r>
       <r>   -2.8480    1.0000 </r>
       <r>   -2.8315    1.0000 </r>
       <r>   -2.7198    1.0000 </r>
       <r>   -2.2088    1.0000 </r>
       <r>   -1.6226    1.0000 </r>
       <r>   -1.2857    1.0000 </r>
       <r>   -0.6790    1.0000 </r>
       <r>   -0.5525    1.0000 </r>
       <r>    0.0438    0.6161 </r>
       <r>    1.1618    0.0000 </r>
       <r>    1.4705    0.0000 </r>
       <r>    1.9549    0.0000 </r>
       <r>    1.9743    0.0000 </r>
       <r>    2.0105    0.0000 </r>
       <r>    2.5253    0.0000 </r>
      </set>
      <set comment="kpoint 7">
       <r>  -11.3220    1.0000 </r>
       <r>  -10.7428    1.0000 </r>
       <r>  -10.2837    1.0000 </r>
       <r>  -10.0140    1.0000 </r>
       <r>   -4.3772    1.0000 </r>
       <r>   -4.3113    1.0000 </r>
       <r>   -4.0067    1.0000 </r>
       <r>   -3.6037    1.0000 </r>
       <r>   -3.2711    1.0000 </r>
       <r>   -3.0980    1.0000 </r>
       <r>   -2.8478    1.0000 </r>
       <r>   -2.8315    1.0000 </r>
       <r>   -2.4815    1.0000 </r>
       <r>   -1.6228    1.0000 </r>
       <r>   -1.5455    1.0000 </r>
       <r>   -0.8223    1.0000 </r>
       <r>   -0.4631    1.0000 </r>
       <r>    0.0439    0.6123 </r>
       <r>    1.1616    0.0000 </r>
       <r>    1.3311    0.0000 </r>
       <r>    1.8215    0.0000 </r>
       <r>    1.9550    0.0000 </r>
       <r>    2.0749    0.0000 </r>
       <r>    2.5249    0.0000 </r>
      </set>
      <set comment="kpoint 8">
       <r>  -11.0239    1.0000 </r>
       <r>  -10.5324    1.0000 </r>
       <r>  -10.3574    1.0000 </r>
       <r>  -10.0666    1.0000 </r>
       <r>   -4.4722    1.0000 </r>
       <r>   -4.3123    1.0000 </r>
       <r>   -4.2059    1.0000 </r>
       <r>   -3.5121    1.0000 </r>
       <r>   -3.2748    1.0000 </r>
       <r>   -3.1869    1.0000 </r>
       <r>   -2.8232    1.0000 </r>
       <r>   -2.8228    1.0000 </r>
       <r>   -2.6390    1.0000 </r>
       <r>   -1.9100    1.0000 </r>
       <r>   -1.5514    1.0000 </r>
       <r>   -1.0099    1.0000 </r>
       <r>   -0.3757    1.0000 </r>
       <r>   -0.0528    1.0000 </r>
       <r>    1.2768    0.0000 </r>
       <r>    1.3541    0.0000 </r>
       <r>    1.7454    0.0000 </r>
       <r>    2.0195    0.0000 </r>
       <r>    2.1431    0.0000 </r>
       <r>    2.3116    0.0000 </r>
      </set>
      <set comment="kpoint 9">
       <r>  -10.7450    1.0000 </r>
       <r>  -10.5145    1.0000 </r>
       <r>  -10.3373    1.0000 </r>
       <r>  -10.1767    1.0000 </r>
       <r>   -4.5176    1.0000 </r>
       <r>   -4.4154    1.0000 </r>
       <r>   -4.1487    1.0000 </r>
       <r>   -3.8768    1.0000 </r>
       <r>   -3.0555    1.0000 </r>
       <r>   -3.0135    1.0000 </r>
       <r>   -2.7869    1.0000 </r>
       <r>   -2.7317    1.0000 </r>
       <r>   -2.7045    1.0000 </r>
       <r>   -2.3213    1.0000 </r>
       <r>   -1.4075    1.0000 </r>
       <r>   -1.2156    1.0000 </r>
       <r>   -0.2963    1.0000 </r>
       <r>   -0.1865    1.0000 </r>
       <r>    1.4299    0.0000 </r>
       <r>    1.4874    0.0000 </r>
       <r>    1.7345    0.0000 </r>
       <r>    1.9832    0.0000 </r>
       <r>    2.1022    0.0000 </r>
       <r>    2.1553    0.0000 </r>
      </set>
      <set comment="kpoint 10">
       <r>  -10.7450    1.0000 </r>
       <r>  -10.5145    1.0000 </r>
       <r>  -10.3373    1.0000 </r>
       <r>  -10.1767    1.0000 </r>
       <r>   -4.5176    1.0000 </r>
       <r>   -4.4154    1.0000 </r>
       <r>   -4.1487    1.0000 </r>
       <r>   -3.8768    1.0000 </r>
       <r>   -3.0555    1.0000 </r>
       <r>   -3.0135    1.0000 </r>
       <r>   -2.7869    1.0000 </r>
       <r>   -2.7317    1.0000 </r>
       <r>   -2.7045    1.0000 </r>
       <r>   -2.3213    1.0000 </r>
       <r>   -1.4075    1.0000 </r>
       <r>   -1.2156    1.0000 </r>
       <r>   -0.2963    1.0000 </r>
       <r>   -0.1865    1.0000 </r>
       <r>    1.4299    0.0000 </r>
       <r>    1.4874    0.0000 </r>
       <r>    1.7345    0.0000 </r>
       <r>    1.9832    0.0000 </r>
       <r>    2.1022    0.0000 </r>
       <r>    2.1553    0.0000 </r>
      </set>
      <set comment="kpoint 11">
       <r>  -11.0239    1.0000 </r>
       <r>  -10.5324    1.0000 </r>
       <r>  -10.3574    1.0000 </r>
       <r>  -10.0666    1.0000 </r>
       <r>   -4.4722    1.0000 </r>
       <r>   -4.3123    1.0000 </r>
       <r>   -4.2059    1.0000 </r>
       <r>   -3.5121    1.0000 </r>
       <r>   -3.2748    1.0000 </r>
       <r>   -3.1869    1.0000 </r>
       <r>   -2.8232    1.0000 </r>
       <r>   -2.8228    1.0000 </r>
       <r>   -2.6390    1.0000 </r>
       <r>   -1.9100    1.0000 </r>
       <r>   -1.5514    1.0000 </r>
       <r>   -1.0099    1.0000 </r>
       <r>   -0.3757    1.0000 </r>
       <r>   -0.0528    1.0000 </r>
       <r>    1.2768    0.0000 </r>
       <r>    1.3541    0.0000 </r>
       <r>    1.7454    0.0000 </r>
       <r>    2.0195    0.0000 </r>
       <r>    2.1431    0.0000 </r>
       <r>    2.3116    0.0000 </r>
      </set>
      <set comment="kpoint 12">
       <r>  -11.3220    1.0000 </r>
       <r>  -10.7428    1.0000 </r>
       <r>  -10.2837    1.0000 </r>
       <r>  -10.0140    1.0000 </r>
       <r>   -4.3772    1.0000 </r>
       <r>   -4.3113    1.0000 </r>
       <r>   -4.0067    1.0000 </r>
       <r>   -3.6037    1.0000 </r>
       <r>   -3.2711    1.0000 </r>
       <r>   -3.0980    1.0000 </r>
       <r>   -2.8478    1.0000 </r>
       <r>   -2.8315    1.0000 </r>
       <r>   -2.4815    1.0000 </r>
       <r>   -1.6228    1.0000 </r>
       <r>   -1.5455    1.0000 </r>
       <r>   -0.8223    1.0000 </r>
       <r>   -0.4631    1.0000 </r>
       <r>    0.0439    0.6123 </r>
       <r>    1.1616    0.0000 </r>
       <r>    1.3311    0.0000 </r>
       <r>    1.8215    0.0000 </r>
       <r>    1.9550    0.0000 </r>
       <r>    2.0749    0.0000 </r>
       <r>    2.5249    0.0000 </r>
      </set>
      <set comment="kpoint 13">
       <r>  -11.6139    1.0000 </r>
       <r>  -10.9508    1.0000 </r>
       <r>  -10.2835    1.0000 </r>
       <r>  -10.0138    1.0000 </r>
       <r>   -4.3774    1.0000 </r>
       <r>   -4.3116    1.0000 </r>
       <r>   -4.0321    1.0000 </r>
       <r>   -3.6035    1.0000 </r>
       <r>   -3.1007    1.0000 </r>
       <r>   -2.8480    1.0000 </r>
       <r>   -2.8315    1.0000 </r>
       <r>   -2.7198    1.0000 </r>
       <r>   -2.2088    1.0000 </r>
       <r>   -1.6226    1.0000 </r>
       <r>   -1.2857    1.0000 </r>
       <r>   -0.6790    1.0000 </r>
       <r>   -0.5525    1.0000 </r>
       <r>    0.0438    0.6161 </r>
       <r>    1.1618    0.0000 </r>
       <r>    1.4705    0.0000 </r>
       <r>    1.9549    0.0000 </r>
       <r>    1.9743    0.0000 </r>
       <r>    2.0105    0.0000 </r>
       <r>    2.5253    0.0000 </r>
      </set>
      <set comment="kpoint 14">
       <r>  -11.8799    1.0000 </r>
       <r>  -11.1421    1.0000 </r>
       <r>  -10.3330    1.0000 </r>
       <r>  -10.0510    1.0000 </r>
       <r>   -4.5659    1.0000 </r>
       <r>   -4.3605    1.0000 </r>
       <r>   -4.2250    1.0000 </r>
       <r>   -3.2784    1.0000 </r>
       <r>   -2.7933    1.0000 </r>
       <r>   -2.7417    1.0000 </r>
       <r>   -2.7385    1.0000 </r>
       <r>   -2.4351    1.0000 </r>
       <r>   -1.8162    1.0000 </r>
       <r>   -1.5797    1.0000 </r>
       <r>   -1.2169    1.0000 </r>
       <r>   -0.5979    1.0000 </r>
       <r>   -0.5525    1.0000 </r>
       <r>   -0.0270    0.9998 </r>
       <r>    1.2582    0.0000 </r>
       <r>    1.7103    0.0000 </r>
       <r>    2.0239    0.0000 </r>
       <r>    2.0620    0.0000 </r>
       <r>    2.2570    0.0000 </r>
       <r>    2.3625    0.0000 </r>
      </set>
      <set comment="kpoint 15">
       <r>  -12.1061    1.0000 </r>
       <r>  -11.3058    1.0000 </r>
       <r>  -10.4053    1.0000 </r>
       <r>  -10.1069    1.0000 </r>
       <r>   -4.8281    1.0000 </r>
       <r>   -4.4400    1.0000 </r>
       <r>   -4.3608    1.0000 </r>
       <r>   -3.1458    1.0000 </r>
       <r>   -2.6694    1.0000 </r>
       <r>   -2.3532    1.0000 </r>
       <r>   -2.3120    1.0000 </r>
       <r>   -2.1952    1.0000 </r>
       <r>   -1.5323    1.0000 </r>
       <r>   -1.4192    1.0000 </r>
       <r>   -1.3056    1.0000 </r>
       <r>   -0.5863    1.0000 </r>
       <r>   -0.4766    1.0000 </r>
       <r>   -0.1004    1.0000 </r>
       <r>    1.3766    0.0000 </r>
       <r>    2.0481    0.0000 </r>
       <r>    2.1409    0.0000 </r>
       <r>    2.1729    0.0000 </r>
       <r>    2.3081    0.0000 </r>
       <r>    2.6241    0.0000 </r>
      </set>
      <set comment="kpoint 16">
       <r>  -12.2830    1.0000 </r>
       <r>  -11.4343    1.0000 </r>
       <r>  -10.4780    1.0000 </r>
       <r>  -10.1640    1.0000 </r>
       <r>   -5.0397    1.0000 </r>
       <r>   -4.6244    1.0000 </r>
       <r>   -4.3818    1.0000 </r>
       <r>   -3.1614    1.0000 </r>
       <r>   -2.4992    1.0000 </r>
       <r>   -2.0072    1.0000 </r>
       <r>   -1.9704    1.0000 </r>
       <r>   -1.7012    1.0000 </r>
       <r>   -1.5077    1.0000 </r>
       <r>   -1.4270    1.0000 </r>
       <r>   -1.1100    1.0000 </r>
       <r>   -0.6364    1.0000 </r>
       <r>   -0.4190    1.0000 </r>
       <r>   -0.1468    1.0000 </r>
       <r>    1.4616    0.0000 </r>
       <r>    1.9392    0.0000 </r>
       <r>    2.4675    0.0000 </r>
       <r>    2.4899    0.0000 </r>
       <r>    2.6989    0.0000 </r>
       <r>    2.9800    0.0000 </r>
      </set>
      <set comment="kpoint 17">
       <r>  -12.4041    1.0000 </r>
       <r>  -11.5226    1.0000 </r>
       <r>  -10.5347    1.0000 </r>
       <r>  -10.2093    1.0000 </r>
       <r>   -5.1859    1.0000 </r>
       <r>   -4.7564    1.0000 </r>
       <r>   -4.4087    1.0000 </r>
       <r>   -3.1969    1.0000 </r>
       <r>   -2.3310    1.0000 </r>
       <r>   -1.7722    1.0000 </r>
       <r>   -1.7483    1.0000 </r>
       <r>   -1.5234    1.0000 </r>
       <r>   -1.5122    1.0000 </r>
       <r>   -1.1219    1.0000 </r>
       <r>   -0.9162    1.0000 </r>
       <r>   -0.7229    1.0000 </r>
       <r>   -0.3954    1.0000 </r>
       <r>   -0.1782    1.0000 </r>
       <r>    1.4787    0.0000 </r>
       <r>    1.8172    0.0000 </r>
       <r>    2.8330    0.0000 </r>
       <r>    2.9715    0.0000 </r>
       <r>    3.2160    0.0000 </r>
       <r>    3.2435    0.0000 </r>
      </set>
      <set comment="kpoint 18">
       <r>  -12.4656    1.0000 </r>
       <r>  -11.5674    1.0000 </r>
       <r>  -10.5655    1.0000 </r>
       <r>  -10.2340    1.0000 </r>
       <r>   -5.2603    1.0000 </r>
       <r>   -4.8248    1.0000 </r>
       <r>   -4.4262    1.0000 </r>
       <r>   -3.2200    1.0000 </r>
       <r>   -2.2223    1.0000 </r>
       <r>   -1.6429    1.0000 </r>
       <r>   -1.6089    1.0000 </r>
       <r>   -1.5753    1.0000 </r>
       <r>   -1.5286    1.0000 </r>
       <r>   -0.8270    1.0000 </r>
       <r>   -0.7971    1.0000 </r>
       <r>   -0.7293    1.0000 </r>
       <r>   -0.3895    1.0000 </r>
       <r>   -0.2219    1.0000 </r>
       <r>    1.4523    0.0000 </r>
       <r>    1.7798    0.0000 </r>
       <r>    3.1033    0.0000 </r>
       <r>    3.1666    0.0000 </r>
       <r>    3.3375    0.0000 </r>
       <r>    3.3744    0.0000 </r>
      </set>
      <set comment="kpoint 19">
       <r>  -12.4450    1.0000 </r>
       <r>  -11.5524    1.0000 </r>
       <r>  -10.6105    1.0000 </r>
       <r>  -10.2631    1.0000 </r>
       <r>   -5.1924    1.0000 </r>
       <r>   -4.8018    1.0000 </r>
       <r>   -4.3693    1.0000 </r>
       <r>   -3.2275    1.0000 </r>
       <r>   -2.2074    1.0000 </r>
       <r>   -1.6893    1.0000 </r>
       <r>   -1.6550    1.0000 </r>
       <r>   -1.5590    1.0000 </r>
       <r>   -1.5184    1.0000 </r>
       <r>   -0.8578    1.0000 </r>
       <r>   -0.7672    1.0000 </r>
       <r>   -0.7596    1.0000 </r>
       <r>   -0.3910    1.0000 </r>
       <r>   -0.2458    1.0000 </r>
       <r>    1.4696    0.0000 </r>
       <r>    1.7523    0.0000 </r>
       <r>    3.0052    0.0000 </r>
       <r>    3.1838    0.0000 </r>
       <r>    3.2013    0.0000 </r>
       <r>    3.3114    0.0000 </r>
      </set>
      <set comment="kpoint 20">
       <r>  -12.3837    1.0000 </r>
       <r>  -11.5077    1.0000 </r>
       <r>  -10.5785    1.0000 </r>
       <r>  -10.2378    1.0000 </r>
       <r>   -5.1214    1.0000 </r>
       <r>   -4.7339    1.0000 </r>
       <r>   -4.3527    1.0000 </r>
       <r>   -3.2021    1.0000 </r>
       <r>   -2.3246    1.0000 </r>
       <r>   -1.8109    1.0000 </r>
       <r>   -1.7936    1.0000 </r>
       <r>   -1.5062    1.0000 </r>
       <r>   -1.4923    1.0000 </r>
       <r>   -1.1402    1.0000 </r>
       <r>   -0.9369    1.0000 </r>
       <r>   -0.7136    1.0000 </r>
       <r>   -0.3983    1.0000 </r>
       <r>   -0.2018    1.0000 </r>
       <r>    1.4907    0.0000 </r>
       <r>    1.7813    0.0000 </r>
       <r>    2.7598    0.0000 </r>
       <r>    2.8684    0.0000 </r>
       <r>    3.1289    0.0000 </r>
       <r>    3.2128    0.0000 </r>
      </set>
      <set comment="kpoint 21">
       <r>  -12.2630    1.0000 </r>
       <r>  -11.4198    1.0000 </r>
       <r>  -10.5192    1.0000 </r>
       <r>  -10.1913    1.0000 </r>
       <r>   -4.9833    1.0000 </r>
       <r>   -4.6033    1.0000 </r>
       <r>   -4.3284    1.0000 </r>
       <r>   -3.1608    1.0000 </r>
       <r>   -2.5009    1.0000 </r>
       <r>   -2.0520    1.0000 </r>
       <r>   -2.0069    1.0000 </r>
       <r>   -1.7064    1.0000 </r>
       <r>   -1.4783    1.0000 </r>
       <r>   -1.4076    1.0000 </r>
       <r>   -1.1049    1.0000 </r>
       <r>   -0.6632    1.0000 </r>
       <r>   -0.4252    1.0000 </r>
       <r>   -0.1723    1.0000 </r>
       <r>    1.4798    0.0000 </r>
       <r>    1.8843    0.0000 </r>
       <r>    2.4134    0.0000 </r>
       <r>    2.4333    0.0000 </r>
       <r>    2.6758    0.0000 </r>
       <r>    2.9668    0.0000 </r>
      </set>
      <set comment="kpoint 22">
       <r>  -12.0869    1.0000 </r>
       <r>  -11.2919    1.0000 </r>
       <r>  -10.4427    1.0000 </r>
       <r>  -10.1320    1.0000 </r>
       <r>   -4.7878    1.0000 </r>
       <r>   -4.4213    1.0000 </r>
       <r>   -4.3132    1.0000 </r>
       <r>   -3.1298    1.0000 </r>
       <r>   -2.6741    1.0000 </r>
       <r>   -2.3982    1.0000 </r>
       <r>   -2.3095    1.0000 </r>
       <r>   -2.2393    1.0000 </r>
       <r>   -1.4986    1.0000 </r>
       <r>   -1.3866    1.0000 </r>
       <r>   -1.2811    1.0000 </r>
       <r>   -0.6451    1.0000 </r>
       <r>   -0.4881    1.0000 </r>
       <r>   -0.1306    1.0000 </r>
       <r>    1.4053    0.0000 </r>
       <r>    1.9966    0.0000 </r>
       <r>    2.0697    0.0000 </r>
       <r>    2.1819    0.0000 </r>
       <r>    2.3006    0.0000 </r>
       <r>    2.6330    0.0000 </r>
      </set>
      <set comment="kpoint 23">
       <r>  -11.8617    1.0000 </r>
       <r>  -11.1291    1.0000 </r>
       <r>  -10.3649    1.0000 </r>
       <r>  -10.0730    1.0000 </r>
       <r>   -4.5602    1.0000 </r>
       <r>   -4.3236    1.0000 </r>
       <r>   -4.2114    1.0000 </r>
       <r>   -3.2159    1.0000 </r>
       <r>   -2.7944    1.0000 </r>
       <r>   -2.7875    1.0000 </r>
       <r>   -2.7456    1.0000 </r>
       <r>   -2.4974    1.0000 </r>
       <r>   -1.7571    1.0000 </r>
       <r>   -1.5480    1.0000 </r>
       <r>   -1.1816    1.0000 </r>
       <r>   -0.6725    1.0000 </r>
       <r>   -0.5703    1.0000 </r>
       <r>   -0.0626    1.0000 </r>
       <r>    1.2968    0.0000 </r>
       <r>    1.6867    0.0000 </r>
       <r>    2.0690    0.0000 </r>
       <r>    2.0695    0.0000 </r>
       <r>    2.2747    0.0000 </r>
       <r>    2.2822    0.0000 </r>
      </set>
      <set comment="kpoint 24">
       <r>  -11.5972    1.0000 </r>
       <r>  -10.9391    1.0000 </r>
       <r>  -10.3085    1.0000 </r>
       <r>  -10.0316    1.0000 </r>
       <r>   -4.3838    1.0000 </r>
       <r>   -4.3555    1.0000 </r>
       <r>   -4.0309    1.0000 </r>
       <r>   -3.4702    1.0000 </r>
       <r>   -3.1437    1.0000 </r>
       <r>   -2.8402    1.0000 </r>
       <r>   -2.8327    1.0000 </r>
       <r>   -2.8023    1.0000 </r>
       <r>   -2.1273    1.0000 </r>
       <r>   -1.5978    1.0000 </r>
       <r>   -1.2374    1.0000 </r>
       <r>   -0.7516    1.0000 </r>
       <r>   -0.5685    1.0000 </r>
       <r>    0.0072    0.9912 </r>
       <r>    1.2050    0.0000 </r>
       <r>    1.4756    0.0000 </r>
       <r>    1.9766    0.0000 </r>
       <r>    1.9839    0.0000 </r>
       <r>    2.0785    0.0000 </r>
       <r>    2.4479    0.0000 </r>
      </set>
      <set comment="kpoint 25">
       <r>  -11.3077    1.0000 </r>
       <r>  -10.7331    1.0000 </r>
       <r>  -10.3004    1.0000 </r>
       <r>  -10.0267    1.0000 </r>
       <r>   -4.4249    1.0000 </r>
       <r>   -4.3718    1.0000 </r>
       <r>   -4.0361    1.0000 </r>
       <r>   -3.4566    1.0000 </r>
       <r>   -3.2976    1.0000 </r>
       <r>   -3.1753    1.0000 </r>
       <r>   -2.8291    1.0000 </r>
       <r>   -2.8095    1.0000 </r>
       <r>   -2.4040    1.0000 </r>
       <r>   -1.6080    1.0000 </r>
       <r>   -1.4791    1.0000 </r>
       <r>   -0.8813    1.0000 </r>
       <r>   -0.4691    1.0000 </r>
       <r>    0.0177    0.9708 </r>
       <r>    1.1968    0.0000 </r>
       <r>    1.3505    0.0000 </r>
       <r>    1.8203    0.0000 </r>
       <r>    1.9910    0.0000 </r>
       <r>    2.1524    0.0000 </r>
       <r>    2.4676    0.0000 </r>
      </set>
      <set comment="kpoint 26">
       <r>  -11.0128    1.0000 </r>
       <r>  -10.5254    1.0000 </r>
       <r>  -10.3655    1.0000 </r>
       <r>  -10.0736    1.0000 </r>
       <r>   -4.5598    1.0000 </r>
       <r>   -4.3230    1.0000 </r>
       <r>   -4.2582    1.0000 </r>
       <r>   -3.5705    1.0000 </r>
       <r>   -3.2161    1.0000 </r>
       <r>   -3.2098    1.0000 </r>
       <r>   -2.7938    1.0000 </r>
       <r>   -2.7453    1.0000 </r>
       <r>   -2.5780    1.0000 </r>
       <r>   -1.8143    1.0000 </r>
       <r>   -1.5485    1.0000 </r>
       <r>   -1.0514    1.0000 </r>
       <r>   -0.3732    1.0000 </r>
       <r>   -0.0622    1.0000 </r>
       <r>    1.2962    0.0000 </r>
       <r>    1.3690    0.0000 </r>
       <r>    1.7415    0.0000 </r>
       <r>    2.0692    0.0000 </r>
       <r>    2.2215    0.0000 </r>
       <r>    2.2813    0.0000 </r>
      </set>
      <set comment="kpoint 27">
       <r>  -10.7386    1.0000 </r>
       <r>  -10.5146    1.0000 </r>
       <r>  -10.3340    1.0000 </r>
       <r>  -10.1782    1.0000 </r>
       <r>   -4.5904    1.0000 </r>
       <r>   -4.4787    1.0000 </r>
       <r>   -4.1747    1.0000 </r>
       <r>   -3.9181    1.0000 </r>
       <r>   -3.0935    1.0000 </r>
       <r>   -3.0631    1.0000 </r>
       <r>   -2.7486    1.0000 </r>
       <r>   -2.6837    1.0000 </r>
       <r>   -2.5411    1.0000 </r>
       <r>   -2.1885    1.0000 </r>
       <r>   -1.4175    1.0000 </r>
       <r>   -1.2403    1.0000 </r>
       <r>   -0.2905    1.0000 </r>
       <r>   -0.1844    1.0000 </r>
       <r>    1.4374    0.0000 </r>
       <r>    1.4923    0.0000 </r>
       <r>    1.7320    0.0000 </r>
       <r>    1.9720    0.0000 </r>
       <r>    2.1645    0.0000 </r>
       <r>    2.2280    0.0000 </r>
      </set>
      <set comment="kpoint 28">
       <r>  -10.7386    1.0000 </r>
       <r>  -10.5146    1.0000 </r>
       <r>  -10.3340    1.0000 </r>
       <r>  -10.1782    1.0000 </r>
       <r>   -4.5904    1.0000 </r>
       <r>   -4.4787    1.0000 </r>
       <r>   -4.1747    1.0000 </r>
       <r>   -3.9181    1.0000 </r>
       <r>   -3.0935    1.0000 </r>
       <r>   -3.0631    1.0000 </r>
       <r>   -2.7486    1.0000 </r>
       <r>   -2.6837    1.0000 </r>
       <r>   -2.5411    1.0000 </r>
       <r>   -2.1885    1.0000 </r>
       <r>   -1.4175    1.0000 </r>
       <r>   -1.2403    1.0000 </r>
       <r>   -0.2905    1.0000 </r>
       <r>   -0.1844    1.0000 </r>
       <r>    1.4374    0.0000 </r>
       <r>    1.4923    0.0000 </r>
       <r>    1.7320    0.0000 </r>
       <r>    1.9720    0.0000 </r>
       <r>    2.1645    0.0000 </r>
       <r>    2.2280    0.0000 </r>
      </set>
      <set comment="kpoint 29">
       <r>  -11.0128    1.0000 </r>
       <r>  -10.5254    1.0000 </r>
       <r>  -10.3655    1.0000 </r>
       <r>  -10.0736    1.0000 </r>
       <r>   -4.5598    1.0000 </r>
       <r>   -4.3230    1.0000 </r>
       <r>   -4.2582    1.0000 </r>
       <r>   -3.5705    1.0000 </r>
       <r>   -3.2161    1.0000 </r>
       <r>   -3.2098    1.0000 </r>
       <r>   -2.7938    1.0000 </r>
       <r>   -2.7453    1.0000 </r>
       <r>   -2.5780    1.0000 </r>
       <r>   -1.8143    1.0000 </r>
       <r>   -1.5485    1.0000 </r>
       <r>   -1.0514    1.0000 </r>
       <r>   -0.3732    1.0000 </r>
       <r>   -0.0622    1.0000 </r>
       <r>    1.2962    0.0000 </r>
       <r>    1.3690    0.0000 </r>
       <r>    1.7415    0.0000 </r>
       <r>    2.0692    0.0000 </r>
       <r>    2.2215    0.0000 </r>
       <r>    2.2813    0.0000 </r>
      </set>
      <set comment="kpoint 30">
       <r>  -11.3077    1.0000 </r>
       <r>  -10.7331    1.0000 </r>
       <r>  -10.3004    1.0000 </r>
       <r>  -10.0267    1.0000 </r>
       <r>   -4.4249    1.0000 </r>
       <r>   -4.3718    1.0000 </r>
       <r>   -4.0361    1.0000 </r>
       <r>   -3.4566    1.0000 </r>
       <r>   -3.2976    1.0000 </r>
       <r>   -3.1753    1.0000 </r>
       <r>   -2.8291    1.0000 </r>
       <r>   -2.8095    1.0000 </r>
       <r>   -2.4040    1.0000 </r>
       <r>   -1.6080    1.0000 </r>
       <r>   -1.4791    1.0000 </r>
       <r>   -0.8813    1.0000 </r>
       <r>   -0.4691    1.0000 </r>
       <r>    0.0177    0.9708 </r>
       <r>    1.1968    0.0000 </r>
       <r>    1.3505    0.0000 </r>
       <r>    1.8203    0.0000 </r>
       <r>    1.9910    0.0000 </r>
       <r>    2.1524    0.0000 </r>
       <r>    2.4676    0.0000 </r>
      </set>
      <set comment="kpoint 31">
       <r>  -11.5972    1.0000 </r>
       <r>  -10.9391    1.0000 </r>
       <r>  -10.3085    1.0000 </r>
       <r>  -10.0316    1.0000 </r>
       <r>   -4.3838    1.0000 </r>
       <r>   -4.3555    1.0000 </r>
       <r>   -4.0309    1.0000 </r>
       <r>   -3.4702    1.0000 </r>
       <r>   -3.1437    1.0000 </r>
       <r>   -2.8402    1.0000 </r>
       <r>   -2.8327    1.0000 </r>
       <r>   -2.8023    1.0000 </r>
       <r>   -2.1273    1.0000 </r>
       <r>   -1.5978    1.0000 </r>
       <r>   -1.2374    1.0000 </r>
       <r>   -0.7516    1.0000 </r>
       <r>   -0.5685    1.0000 </r>
       <r>    0.0072    0.9912 </r>
       <r>    1.2050    0.0000 </r>
       <r>    1.4756    0.0000 </r>
       <r>    1.9766    0.0000 </r>
       <r>    1.9839    0.0000 </r>
       <r>    2.0785    0.0000 </r>
       <r>    2.4479    0.0000 </r>
      </set>
      <set comment="kpoint 32">
       <r>  -11.8617    1.0000 </r>
       <r>  -11.1291    1.0000 </r>
       <r>  -10.3649    1.0000 </r>
       <r>  -10.0730    1.0000 </r>
       <r>   -4.5602    1.0000 </r>
       <r>   -4.3236    1.0000 </r>
       <r>   -4.2114    1.0000 </r>
       <r>   -3.2159    1.0000 </r>
       <r>   -2.7944    1.0000 </r>
       <r>   -2.7875    1.0000 </r>
       <r>   -2.7456    1.0000 </r>
       <r>   -2.4974    1.0000 </r>
       <r>   -1.7571    1.0000 </r>
       <r>   -1.5480    1.0000 </r>
       <r>   -1.1816    1.0000 </r>
       <r>   -0.6725    1.0000 </r>
       <r>   -0.5703    1.0000 </r>
       <r>   -0.0626    1.0000 </r>
       <r>    1.2968    0.0000 </r>
       <r>    1.6867    0.0000 </r>
       <r>    2.0690    0.0000 </r>
       <r>    2.0695    0.0000 </r>
       <r>    2.2747    0.0000 </r>
       <r>    2.2822    0.0000 </r>
      </set>
      <set comment="kpoint 33">
       <r>  -12.0869    1.0000 </r>
       <r>  -11.2919    1.0000 </r>
       <r>  -10.4427    1.0000 </r>
       <r>  -10.1320    1.0000 </r>
       <r>   -4.7878    1.0000 </r>
       <r>   -4.4213    1.0000 </r>
       <r>   -4.3132    1.0000 </r>
       <r>   -3.1298    1.0000 </r>
       <r>   -2.6741    1.0000 </r>
       <r>   -2.3982    1.0000 </r>
       <r>   -2.3095    1.0000 </r>
       <r>   -2.2393    1.0000 </r>
       <r>   -1.4986    1.0000 </r>
       <r>   -1.3866    1.0000 </r>
       <r>   -1.2811    1.0000 </r>
       <r>   -0.6451    1.0000 </r>
       <r>   -0.4881    1.0000 </r>
       <r>   -0.1306    1.0000 </r>
       <r>    1.4053    0.0000 </r>
       <r>    1.9966    0.0000 </r>
       <r>    2.0697    0.0000 </r>
       <r>    2.1819    0.0000 </r>
       <r>    2.3006    0.0000 </r>
       <r>    2.6330    0.0000 </r>
      </set>
      <set comment="kpoint 34">
       <r>  -12.2630    1.0000 </r>
       <r>  -11.4198    1.0000 </r>
       <r>  -10.5192    1.0000 </r>
       <r>  -10.1913    1.0000 </r>
       <r>   -4.9833    1.0000 </r>
       <r>   -4.6033    1.0000 </r>
       <r>   -4.3284    1.0000 </r>
       <r>   -3.1608    1.0000 </r>
       <r>   -2.5009    1.0000 </r>
       <r>   -2.0520    1.0000 </r>
       <r>   -2.0069    1.0000 </r>
       <r>   -1.7064    1.0000 </r>
       <r>   -1.4783    1.0000 </r>
       <r>   -1.4076    1.0000 </r>
       <r>   -1.1049    1.0000 </r>
       <r>   -0.6632    1.0000 </r>
       <r>   -0.4252    1.0000 </r>
       <r>   -0.1723    1.0000 </r>
       <r>    1.4798    0.0000 </r>
       <r>    1.8843    0.0000 </r>
       <r>    2.4134    0.0000 </r>
       <r>    2.4333    0.0000 </r>
       <r>    2.6758    0.0000 </r>
       <r>    2.9668    0.0000 </r>
      </set>
      <set comment="kpoint 35">
       <r>  -12.3837    1.0000 </r>
       <r>  -11.5077    1.0000 </r>
       <r>  -10.5785    1.0000 </r>
       <r>  -10.2378    1.0000 </r>
       <r>   -5.1214    1.0000 </r>
       <r>   -4.7339    1.0000 </r>
       <r>   -4.3527    1.0000 </r>
       <r>   -3.2021    1.0000 </r>
       <r>   -2.3246    1.0000 </r>
       <r>   -1.8109    1.0000 </r>
       <r>   -1.7936    1.0000 </r>
       <r>   -1.5062    1.0000 </r>
       <r>   -1.4923    1.0000 </r>
       <r>   -1.1402    1.0000 </r>
       <r>   -0.9369    1.0000 </r>
       <r>   -0.7136    1.0000 </r>
       <r>   -0.3983    1.0000 </r>
       <r>   -0.2018    1.0000 </r>
       <r>    1.4907    0.0000 </r>
       <r>    1.7813    0.0000 </r>
       <r>    2.7598    0.0000 </r>
       <r>    2.8684    0.0000 </r>
       <r>    3.1290    0.0000 </r>
       <r>    3.2252    0.0000 </r>
      </set>
      <set comment="kpoint 36">
       <r>  -12.4450    1.0000 </r>
       <r>  -11.5524    1.0000 </r>
       <r>  -10.6105    1.0000 </r>
       <r>  -10.2631    1.0000 </r>
       <r>   -5.1924    1.0000 </r>
       <r>   -4.8018    1.0000 </r>
       <r>   -4.3693    1.0000 </r>
       <r>   -3.2275    1.0000 </r>
       <r>   -2.2074    1.0000 </r>
       <r>   -1.6893    1.0000 </r>
       <r>   -1.6550    1.0000 </r>
       <r>   -1.5590    1.0000 </r>
       <r>   -1.5184    1.0000 </r>
       <r>   -0.8578    1.0000 </r>
       <r>   -0.7672    1.0000 </r>
       <r>   -0.7596    1.0000 </r>
       <r>   -0.3910    1.0000 </r>
       <r>   -0.2458    1.0000 </r>
       <r>    1.4696    0.0000 </r>
       <r>    1.7523    0.0000 </r>
       <r>    3.0052    0.0000 </r>
       <r>    3.1838    0.0000 </r>
       <r>    3.2013    0.0000 </r>
       <r>    3.3096    0.0000 </r>
      </set>
      <set comment="kpoint 37">
       <r>  -12.4041    1.0000 </r>
       <r>  -11.5225    1.0000 </r>
       <r>  -10.6961    1.0000 </r>
       <r>  -10.3191    1.0000 </r>
       <r>   -5.0623    1.0000 </r>
       <r>   -4.7563    1.0000 </r>
       <r>   -4.2588    1.0000 </r>
       <r>   -3.2444    1.0000 </r>
       <r>   -2.1778    1.0000 </r>
       <r>   -1.7720    1.0000 </r>
       <r>   -1.7468    1.0000 </r>
       <r>   -1.5250    1.0000 </r>
       <r>   -1.4974    1.0000 </r>
       <r>   -0.9173    1.0000 </r>
       <r>   -0.8111    1.0000 </r>
       <r>   -0.7219    1.0000 </r>
       <r>   -0.3953    1.0000 </r>
       <r>   -0.2917    1.0000 </r>
       <r>    1.5034    0.0000 </r>
       <r>    1.7071    0.0000 </r>
       <r>    2.8338    0.0000 </r>
       <r>    2.9731    0.0000 </r>
       <r>    3.2173    0.0000 </r>
       <r>    3.2363    0.0000 </r>
      </set>
      <set comment="kpoint 38">
       <r>  -12.3432    1.0000 </r>
       <r>  -11.4781    1.0000 </r>
       <r>  -10.6619    1.0000 </r>
       <r>  -10.2926    1.0000 </r>
[...]
       <r>    2.2890    0.0000 </r>
      </set>
      <set comment="kpoint 159">
       <r>  -11.4638    1.0000 </r>
       <r>  -11.3215    1.0000 </r>
       <r>  -10.8436    1.0000 </r>
       <r>  -10.7423    1.0000 </r>
       <r>   -4.0069    1.0000 </r>
       <r>   -3.9898    1.0000 </r>
       <r>   -3.2712    1.0000 </r>
       <r>   -3.2377    1.0000 </r>
       <r>   -3.0989    1.0000 </r>
       <r>   -2.9330    1.0000 </r>
       <r>   -2.4815    1.0000 </r>
       <r>   -2.3289    1.0000 </r>
       <r>   -1.5445    1.0000 </r>
       <r>   -1.3749    1.0000 </r>
       <r>   -0.8219    1.0000 </r>
       <r>   -0.7691    1.0000 </r>
       <r>   -0.5174    1.0000 </r>
       <r>   -0.4639    1.0000 </r>
       <r>    1.3307    0.0000 </r>
       <r>    1.3900    0.0000 </r>
       <r>    1.8228    0.0000 </r>
       <r>    1.8861    0.0000 </r>
       <r>    2.0651    0.0000 </r>
       <r>    2.0739    0.0000 </r>
      </set>
      <set comment="kpoint 160">
       <r>  -11.6134    1.0000 </r>
       <r>  -11.4637    1.0000 </r>
       <r>  -10.9504    1.0000 </r>
       <r>  -10.8435    1.0000 </r>
       <r>   -4.0319    1.0000 </r>
       <r>   -3.9898    1.0000 </r>
       <r>   -3.2373    1.0000 </r>
       <r>   -3.1007    1.0000 </r>
       <r>   -2.9324    1.0000 </r>
       <r>   -2.7199    1.0000 </r>
       <r>   -2.3296    1.0000 </r>
       <r>   -2.2094    1.0000 </r>
       <r>   -1.3753    1.0000 </r>
       <r>   -1.2854    1.0000 </r>
       <r>   -0.7691    1.0000 </r>
       <r>   -0.6787    1.0000 </r>
       <r>   -0.5531    1.0000 </r>
       <r>   -0.5173    1.0000 </r>
       <r>    1.3900    0.0000 </r>
       <r>    1.4703    0.0000 </r>
       <r>    1.8856    0.0000 </r>
       <r>    1.9749    0.0000 </r>
       <r>    2.0095    0.0000 </r>
       <r>    2.0651    0.0000 </r>
      </set>
      <set comment="kpoint 161">
       <r>  -11.7180    1.0000 </r>
       <r>  -11.5637    1.0000 </r>
       <r>  -11.0256    1.0000 </r>
       <r>  -10.9154    1.0000 </r>
       <r>   -4.1032    1.0000 </r>
       <r>   -4.0317    1.0000 </r>
       <r>   -3.2162    1.0000 </r>
       <r>   -3.0137    1.0000 </r>
       <r>   -2.9211    1.0000 </r>
       <r>   -2.6938    1.0000 </r>
       <r>   -2.0150    1.0000 </r>
       <r>   -1.9007    1.0000 </r>
       <r>   -1.1502    1.0000 </r>
       <r>   -1.1480    1.0000 </r>
       <r>   -0.8788    1.0000 </r>
       <r>   -0.7659    1.0000 </r>
       <r>   -0.6034    1.0000 </r>
       <r>   -0.6011    1.0000 </r>
       <r>    1.4850    0.0000 </r>
       <r>    1.5650    0.0000 </r>
       <r>    1.9956    0.0000 </r>
       <r>    2.1067    0.0000 </r>
       <r>    2.1241    0.0000 </r>
       <r>    2.1932    0.0000 </r>
      </set>
      <set comment="kpoint 162">
       <r>  -11.7716    1.0000 </r>
       <r>  -11.6152    1.0000 </r>
       <r>  -11.0644    1.0000 </r>
       <r>  -10.9526    1.0000 </r>
       <r>   -4.1484    1.0000 </r>
       <r>   -4.0659    1.0000 </r>
       <r>   -3.2096    1.0000 </r>
       <r>   -2.9781    1.0000 </r>
       <r>   -2.9355    1.0000 </r>
       <r>   -2.7054    1.0000 </r>
       <r>   -1.7222    1.0000 </r>
       <r>   -1.6053    1.0000 </r>
       <r>   -1.0677    1.0000 </r>
       <r>   -1.0392    1.0000 </r>
       <r>   -0.9507    1.0000 </r>
       <r>   -0.9484    1.0000 </r>
       <r>   -0.7152    1.0000 </r>
       <r>   -0.6548    1.0000 </r>
       <r>    1.5391    0.0000 </r>
       <r>    1.6117    0.0000 </r>
       <r>    2.1178    0.0000 </r>
       <r>    2.2197    0.0000 </r>
       <r>    2.2760    0.0000 </r>
       <r>    2.3165    0.0000 </r>
      </set>
     </set>
    </set>
   </array>
  </eigenvalues>
  <separator name="orbital magnetization" >
   <v name="MAGDIPOLOUT">      0.00000000      0.00000000      0.00000000</v>
  </separator>
  <dos>
   <i name="efermi">      0.04787376 </i>
   <total>
    <array>
     <dimension dim="1">gridpoints</dimension>
     <dimension dim="2">spin</dimension>
     <field>energy</field>
     <field>total</field>
     <field>integrated</field>
     <set>
      <set comment="spin 1">
       <r>   -13.2581     0.0000     0.0000 </r>
       <r>   -13.2000     0.0000     0.0000 </r>
       <r>   -13.1419     0.0000     0.0000 </r>
       <r>   -13.0837     0.0000     0.0000 </r>
       <r>   -13.0256     0.0000     0.0000 </r>
       <r>   -12.9675     0.0000     0.0000 </r>
       <r>   -12.9094     0.0000     0.0000 </r>
       <r>   -12.8513     0.0000     0.0000 </r>
       <r>   -12.7931     0.0000     0.0000 </r>
       <r>   -12.7350     0.0000     0.0000 </r>
       <r>   -12.6769     0.0000     0.0000 </r>
       <r>   -12.6188     0.0000     0.0000 </r>
       <r>   -12.5607     0.0000     0.0000 </r>
       <r>   -12.5025     0.0063     0.0004 </r>
       <r>   -12.4444     0.6124     0.0360 </r>
       <r>   -12.3863     1.1369     0.1040 </r>
       <r>   -12.3282     0.9652     0.1657 </r>
       <r>   -12.2701     0.9507     0.2284 </r>
       <r>   -12.2119     1.0408     0.2979 </r>
       <r>   -12.1538     0.9634     0.3592 </r>
       <r>   -12.0957     1.0699     0.4215 </r>
       <r>   -12.0376     1.4854     0.5078 </r>
       <r>   -11.9795     1.1111     0.5780 </r>
       <r>   -11.9213     0.3259     0.6116 </r>
       <r>   -11.8632     1.6565     0.7078 </r>
       <r>   -11.8051     1.2495     0.7869 </r>
       <r>   -11.7470     1.0996     0.8551 </r>
       <r>   -11.6889     1.2789     0.9321 </r>
       <r>   -11.6307     0.2425     0.9524 </r>
       <r>   -11.5726     2.6652     1.1073 </r>
       <r>   -11.5145     2.4731     1.2545 </r>
       <r>   -11.4564     2.6788     1.4107 </r>
       <r>   -11.3983     3.0479     1.5917 </r>
       <r>   -11.3401     2.1412     1.7208 </r>
       <r>   -11.2820     4.1094     1.9606 </r>
       <r>   -11.2239     3.1410     2.1491 </r>
       <r>   -11.1658     2.3740     2.2966 </r>
       <r>   -11.1077     3.7391     2.5201 </r>
       <r>   -11.0495     2.7085     2.6828 </r>
       <r>   -10.9914     3.6973     2.9081 </r>
       <r>   -10.9333     4.3034     3.1659 </r>
       <r>   -10.8752     3.1244     3.3630 </r>
       <r>   -10.8171     4.0651     3.6001 </r>
       <r>   -10.7589     2.9290     3.7801 </r>
       <r>   -10.7008     6.6453     4.1732 </r>
       <r>   -10.6427     4.1170     4.4323 </r>
       <r>   -10.5846     6.1273     4.7938 </r>
       <r>   -10.5265     6.0858     5.1658 </r>
       <r>   -10.4683     8.0191     5.6357 </r>
       <r>   -10.4102     5.0794     5.9379 </r>
       <r>   -10.3521     5.1487     6.2536 </r>
       <r>   -10.2940     7.1071     6.6829 </r>
       <r>   -10.2359     5.7594     7.0383 </r>
       <r>   -10.1777     5.7652     7.3925 </r>
       <r>   -10.1196     3.7160     7.6214 </r>
       <r>   -10.0615     3.4260     7.8342 </r>
       <r>   -10.0034     2.3950     7.9861 </r>
       <r>    -9.9453     0.1931     8.0000 </r>
       <r>    -9.8871     0.0000     8.0000 </r>
       <r>    -9.8290     0.0000     8.0000 </r>
       <r>    -9.7709     0.0000     8.0000 </r>
       <r>    -9.7128     0.0000     8.0000 </r>
       <r>    -9.6547     0.0000     8.0000 </r>
       <r>    -9.5965     0.0000     8.0000 </r>
       <r>    -9.5384     0.0000     8.0000 </r>
       <r>    -9.4803     0.0000     8.0000 </r>
       <r>    -9.4222     0.0000     8.0000 </r>
       <r>    -9.3641     0.0000     8.0000 </r>
       <r>    -9.3059     0.0000     8.0000 </r>
       <r>    -9.2478     0.0000     8.0000 </r>
       <r>    -9.1897     0.0000     8.0000 </r>
       <r>    -9.1316     0.0000     8.0000 </r>
       <r>    -9.0735     0.0000     8.0000 </r>
       <r>    -9.0153     0.0000     8.0000 </r>
       <r>    -8.9572     0.0000     8.0000 </r>
       <r>    -8.8991     0.0000     8.0000 </r>
       <r>    -8.8410     0.0000     8.0000 </r>
       <r>    -8.7829     0.0000     8.0000 </r>
       <r>    -8.7247     0.0000     8.0000 </r>
       <r>    -8.6666     0.0000     8.0000 </r>
       <r>    -8.6085     0.0000     8.0000 </r>
       <r>    -8.5504     0.0000     8.0000 </r>
       <r>    -8.4923     0.0000     8.0000 </r>
       <r>    -8.4341     0.0000     8.0000 </r>
       <r>    -8.3760     0.0000     8.0000 </r>
       <r>    -8.3179     0.0000     8.0000 </r>
       <r>    -8.2598     0.0000     8.0000 </r>
       <r>    -8.2017     0.0000     8.0000 </r>
       <r>    -8.1435     0.0000     8.0000 </r>
       <r>    -8.0854     0.0000     8.0000 </r>
       <r>    -8.0273     0.0000     8.0000 </r>
       <r>    -7.9692     0.0000     8.0000 </r>
       <r>    -7.9111     0.0000     8.0000 </r>
       <r>    -7.8529     0.0000     8.0000 </r>
       <r>    -7.7948     0.0000     8.0000 </r>
       <r>    -7.7367     0.0000     8.0000 </r>
       <r>    -7.6786     0.0000     8.0000 </r>
       <r>    -7.6205     0.0000     8.0000 </r>
       <r>    -7.5623     0.0000     8.0000 </r>
       <r>    -7.5042     0.0000     8.0000 </r>
       <r>    -7.4461     0.0000     8.0000 </r>
       <r>    -7.3880     0.0000     8.0000 </r>
       <r>    -7.3299     0.0000     8.0000 </r>
       <r>    -7.2717     0.0000     8.0000 </r>
       <r>    -7.2136     0.0000     8.0000 </r>
       <r>    -7.1555     0.0000     8.0000 </r>
       <r>    -7.0974     0.0000     8.0000 </r>
       <r>    -7.0393     0.0000     8.0000 </r>
       <r>    -6.9811     0.0000     8.0000 </r>
       <r>    -6.9230     0.0000     8.0000 </r>
       <r>    -6.8649     0.0000     8.0000 </r>
       <r>    -6.8068     0.0000     8.0000 </r>
       <r>    -6.7487     0.0000     8.0000 </r>
       <r>    -6.6905     0.0000     8.0000 </r>
       <r>    -6.6324     0.0000     8.0000 </r>
       <r>    -6.5743     0.0000     8.0000 </r>
       <r>    -6.5162     0.0000     8.0000 </r>
       <r>    -6.4581     0.0000     8.0000 </r>
       <r>    -6.3999     0.0000     8.0000 </r>
       <r>    -6.3418     0.0000     8.0000 </r>
       <r>    -6.2837     0.0000     8.0000 </r>
       <r>    -6.2256     0.0000     8.0000 </r>
       <r>    -6.1675     0.0000     8.0000 </r>
       <r>    -6.1093     0.0000     8.0000 </r>
       <r>    -6.0512     0.0000     8.0000 </r>
       <r>    -5.9931     0.0000     8.0000 </r>
       <r>    -5.9350     0.0000     8.0000 </r>
       <r>    -5.8769     0.0000     8.0000 </r>
       <r>    -5.8187     0.0000     8.0000 </r>
       <r>    -5.7606     0.0000     8.0000 </r>
       <r>    -5.7025     0.0000     8.0000 </r>
       <r>    -5.6444     0.0000     8.0000 </r>
       <r>    -5.5863     0.0000     8.0000 </r>
       <r>    -5.5281     0.0000     8.0000 </r>
       <r>    -5.4700     0.0000     8.0000 </r>
       <r>    -5.4119     0.0000     8.0000 </r>
       <r>    -5.3538     0.0000     8.0000 </r>
       <r>    -5.2957     0.0159     8.0009 </r>
       <r>    -5.2375     1.3302     8.0782 </r>
       <r>    -5.1794     1.5758     8.1731 </r>
       <r>    -5.1213     0.9264     8.2358 </r>
       <r>    -5.0632     2.3352     8.3715 </r>
       <r>    -5.0051     1.5833     8.4646 </r>
       <r>    -4.9469     1.9672     8.5799 </r>
       <r>    -4.8888     0.6645     8.6196 </r>
       <r>    -4.8307     3.6639     8.8326 </r>
       <r>    -4.7726     2.6556     8.9930 </r>
       <r>    -4.7145     2.9518     9.1727 </r>
       <r>    -4.6563     2.6652     9.3413 </r>
       <r>    -4.5982     3.5166     9.5476 </r>
       <r>    -4.5401     5.4467     9.8706 </r>
       <r>    -4.4820     3.4913    10.0826 </r>
       <r>    -4.4239     4.8652    10.3716 </r>
       <r>    -4.3657     9.5334    10.9327 </r>
       <r>    -4.3076    10.2960    11.5581 </r>
       <r>    -4.2495     5.4215    11.8928 </r>
       <r>    -4.1914     6.9460    12.3078 </r>
       <r>    -4.1333     5.3688    12.6426 </r>
       <r>    -4.0751     6.0995    13.0139 </r>
       <r>    -4.0170     6.7337    13.4384 </r>
       <r>    -3.9589     3.1152    13.6516 </r>
       <r>    -3.9008     1.6449    13.7505 </r>
       <r>    -3.8427     2.4751    13.9000 </r>
       <r>    -3.7845     0.5989    13.9362 </r>
       <r>    -3.7264     1.0493    13.9972 </r>
       <r>    -3.6683     1.8519    14.1049 </r>
       <r>    -3.6102     1.4441    14.1889 </r>
       <r>    -3.5521     1.7547    14.2911 </r>
       <r>    -3.4939     1.2193    14.3670 </r>
       <r>    -3.4358     1.4870    14.4587 </r>
       <r>    -3.3777     3.9447    14.6904 </r>
       <r>    -3.3196     5.6364    15.0219 </r>
       <r>    -3.2615     9.9301    15.6114 </r>
       <r>    -3.2033    12.0685    16.3571 </r>
       <r>    -3.1452    12.2141    17.1128 </r>
       <r>    -3.0871     7.9922    17.6094 </r>
       <r>    -3.0290     3.4073    17.8364 </r>
       <r>    -2.9709     2.4637    17.9862 </r>
       <r>    -2.9127     2.7599    18.1478 </r>
       <r>    -2.8546     1.4605    18.2447 </r>
       <r>    -2.7965     6.9032    18.6524 </r>
       <r>    -2.7384     7.2871    19.0882 </r>
       <r>    -2.6803     8.2361    19.5682 </r>
       <r>    -2.6221     3.8296    19.8053 </r>
       <r>    -2.5640     5.3795    20.1246 </r>
       <r>    -2.5059     4.1749    20.3848 </r>
       <r>    -2.4478     7.1470    20.8013 </r>
       <r>    -2.3897     4.1663    21.0476 </r>
       <r>    -2.3315     3.9633    21.2950 </r>
       <r>    -2.2734     8.4810    21.7927 </r>
       <r>    -2.2153     5.8258    22.1500 </r>
       <r>    -2.1572     6.5919    22.5392 </r>
       <r>    -2.0991     3.7045    22.7750 </r>
       <r>    -2.0409     4.3801    23.0332 </r>
       <r>    -1.9828     5.4579    23.3625 </r>
       <r>    -1.9247     1.9750    23.4921 </r>
       <r>    -1.8666     4.1772    23.7354 </r>
       <r>    -1.8085     2.6065    23.9057 </r>
       <r>    -1.7503     2.8913    24.0812 </r>
       <r>    -1.6922     5.4789    24.4035 </r>
       <r>    -1.6341     3.3295    24.6165 </r>
       <r>    -1.5760     5.1756    24.9277 </r>
       <r>    -1.5179     8.8175    25.4519 </r>
       <r>    -1.4597    12.0857    26.1795 </r>
       <r>    -1.4016    10.6404    26.8264 </r>
       <r>    -1.3435     8.2384    27.3334 </r>
       <r>    -1.2854     5.2335    27.6588 </r>
       <r>    -1.2273     9.8145    28.2359 </r>
       <r>    -1.1691     8.5435    28.7703 </r>
       <r>    -1.1110     8.0575    29.2576 </r>
       <r>    -1.0529     4.0405    29.5215 </r>
       <r>    -0.9948     6.3210    29.9067 </r>
       <r>    -0.9367     4.8376    30.1976 </r>
       <r>    -0.8785     6.0017    30.5663 </r>
       <r>    -0.8204     4.5055    30.8314 </r>
       <r>    -0.7623     4.9162    31.1271 </r>
       <r>    -0.7042     6.5979    31.5131 </r>
       <r>    -0.6461     7.0981    31.9470 </r>
       <r>    -0.5879     7.6191    32.4018 </r>
       <r>    -0.5298     7.1449    32.8439 </r>
       <r>    -0.4717     7.0476    33.2672 </r>
       <r>    -0.4136     7.1142    33.6908 </r>
       <r>    -0.3555     7.7613    34.1639 </r>
       <r>    -0.2973     4.6940    34.4562 </r>
       <r>    -0.2392     6.8426    34.8585 </r>
       <r>    -0.1811     6.9878    35.2756 </r>
       <r>    -0.1230     5.4173    35.6009 </r>
       <r>    -0.0649     2.9528    35.7761 </r>
       <r>    -0.0067     2.0189    35.9023 </r>
       <r>     0.0514     1.3412    35.9848 </r>
       <r>     0.1095     0.2502    36.0000 </r>
       <r>     0.1676     0.0000    36.0000 </r>
       <r>     0.2257     0.0000    36.0000 </r>
       <r>     0.2839     0.0000    36.0000 </r>
       <r>     0.3420     0.0000    36.0000 </r>
       <r>     0.4001     0.0000    36.0000 </r>
       <r>     0.4582     0.0000    36.0000 </r>
       <r>     0.5163     0.0000    36.0000 </r>
       <r>     0.5745     0.0000    36.0000 </r>
       <r>     0.6326     0.0000    36.0000 </r>
       <r>     0.6907     0.0000    36.0000 </r>
       <r>     0.7488     0.0000    36.0000 </r>
       <r>     0.8069     0.0000    36.0000 </r>
       <r>     0.8651     0.0000    36.0000 </r>
       <r>     0.9232     0.0000    36.0000 </r>
       <r>     0.9813     0.0000    36.0000 </r>
       <r>     1.0394     0.0000    36.0000 </r>
       <r>     1.0975     0.0005    36.0000 </r>
       <r>     1.1557     0.2862    36.0167 </r>
       <r>     1.2138     1.2515    36.0894 </r>
       <r>     1.2719     1.1656    36.1603 </r>
       <r>     1.3300     2.6769    36.3242 </r>
       <r>     1.3881     6.6637    36.7171 </r>
       <r>     1.4463     8.1456    37.2099 </r>
       <r>     1.5044    20.0908    38.4009 </r>
       <r>     1.5625     9.4177    39.0233 </r>
       <r>     1.6206     2.7372    39.1993 </r>
       <r>     1.6787     3.9212    39.4278 </r>
       <r>     1.7369    12.9848    40.1959 </r>
       <r>     1.7950     9.9842    40.8159 </r>
       <r>     1.8531     7.7291    41.2983 </r>
       <r>     1.9112     3.9698    41.5374 </r>
       <r>     1.9693     5.2452    41.8508 </r>
       <r>     2.0275     8.5300    42.3613 </r>
       <r>     2.0856     7.8604    42.8299 </r>
       <r>     2.1437     8.1082    43.3338 </r>
       <r>     2.2018     9.9273    43.9228 </r>
       <r>     2.2599     5.9354    44.2899 </r>
       <r>     2.3181    11.0810    44.9371 </r>
       <r>     2.3762     4.1161    45.1951 </r>
       <r>     2.4343     2.4910    45.3484 </r>
       <r>     2.4924     7.0375    45.7618 </r>
       <r>     2.5505     2.1760    45.8987 </r>
       <r>     2.6087     3.1866    46.0864 </r>
       <r>     2.6668     5.4975    46.4063 </r>
       <r>     2.7249     2.2358    46.5397 </r>
       <r>     2.7830     2.2622    46.6760 </r>
       <r>     2.8411     2.3552    46.8264 </r>
       <r>     2.8993     1.4172    46.9097 </r>
       <r>     2.9574     3.5450    47.1171 </r>
       <r>     3.0155     2.7944    47.2828 </r>
       <r>     3.0736     1.0999    47.3480 </r>
       <r>     3.1317     2.1799    47.4752 </r>
       <r>     3.1899     2.0316    47.6044 </r>
       <r>     3.2480     3.5466    47.8130 </r>
       <r>     3.3061     0.4249    47.8473 </r>
       <r>     3.3642     1.7132    47.9469 </r>
       <r>     3.4223     0.8680    47.9996 </r>
       <r>     3.4805     0.0000    48.0000 </r>
       <r>     3.5386     0.0000    48.0000 </r>
       <r>     3.5967     0.0000    48.0000 </r>
       <r>     3.6548     0.0000    48.0000 </r>
       <r>     3.7129     0.0000    48.0000 </r>
       <r>     3.7711     0.0000    48.0000 </r>
       <r>     3.8292     0.0000    48.0000 </r>
       <r>     3.8873     0.0000    48.0000 </r>
       <r>     3.9454     0.0000    48.0000 </r>
       <r>     4.0035     0.0000    48.0000 </r>
       <r>     4.0617     0.0000    48.0000 </r>
       <r>     4.1198     0.0000    48.0000 </r>
       <r>     4.1779     0.0000    48.0000 </r>
      </set>
     </set>
    </array>
   </total>
  </dos>
 </calculation>
 <structure name="finalpos" >
  <crystal>
   <varray name="basis" >
    <v>       3.55100000       0.00000000       0.00000000 </v>
    <v>       0.00000000       6.14900000       0.00000000 </v>
    <v>       0.00000000       0.00000000      16.00000000 </v>
   </varray>
   <i name="volume">    349.36158400 </i>
   <varray name="rec_basis" >
    <v>       0.28161081       0.00000000       0.00000000 </v>
    <v>       0.00000000       0.16262807       0.00000000 </v>
    <v>       0.00000000       0.00000000       0.06250000 </v>
   </varray>
  </crystal>
  <varray name="positions" >
   <v>      -0.00000000       0.66665868       0.11286723 </v>
   <v>       0.00000000       0.66665868       0.88713277 </v>
   <v>       0.50000000       0.16665862       0.11286593 </v>
   <v>       0.50000000       0.16665862       0.88713407 </v>
   <v>       0.50000000       0.50001278       0.00000000 </v>
   <v>       0.00000000       0.00001062       0.00000000 </v>
  </varray>
 </structure>
</modeling>
