2D MoTe2 in a box                       
           1
     3.551000    0.000000    0.000000
     0.000000    6.149000    0.000000
     0.000000    0.000000   16.000000
   Te   Mo
   4   2
Direct configuration=     1
   0.00000000  0.66665962  0.11282875
   0.00000000  0.66665962  0.88717125
   0.50000000  0.16665799  0.11282750
   0.50000000  0.16665799  0.88717250
   0.50000000  0.50001464  0.00000000
   0.00000000  0.00000813  0.00000000
Direct configuration=     2
  -0.00000000  0.66665899  0.11285429
   0.00000000  0.66665899  0.88714571
   0.50000000  0.16665841  0.11285301
   0.50000000  0.16665841  0.88714699
   0.50000000  0.50001341  0.00000000
   0.00000000  0.00000978  0.00000000
Direct configuration=     3
  -0.00000000  0.66665868  0.11286723
   0.00000000  0.66665868  0.88713277
   0.50000000  0.16665862  0.11286593
   0.50000000  0.16665862  0.88713407
   0.50000000  0.50001278  0.00000000
   0.00000000  0.00001062  0.00000000
